 Entering Gaussian System, Link 0=g16
 Input=brch3cl_irc3.gjf
 Output=brch3cl_irc3.log
 Initial command:
 /home/apps/g16/l1.exe "./Gau-308461.inp" -scrdir="./"
 Entering Link 1 = /home/apps/g16/l1.exe PID=    308462.
  
 Copyright (c) 1988-2017, Gaussian, Inc.  All Rights Reserved.
  
 This is part of the Gaussian(R) 16 program.  It is based on
 the Gaussian(R) 09 system (copyright 2009, Gaussian, Inc.),
 the Gaussian(R) 03 system (copyright 2003, Gaussian, Inc.),
 the Gaussian(R) 98 system (copyright 1998, Gaussian, Inc.),
 the Gaussian(R) 94 system (copyright 1995, Gaussian, Inc.),
 the Gaussian 92(TM) system (copyright 1992, Gaussian, Inc.),
 the Gaussian 90(TM) system (copyright 1990, Gaussian, Inc.),
 the Gaussian 88(TM) system (copyright 1988, Gaussian, Inc.),
 the Gaussian 86(TM) system (copyright 1986, Carnegie Mellon
 University), and the Gaussian 82(TM) system (copyright 1983,
 Carnegie Mellon University). Gaussian is a federally registered
 trademark of Gaussian, Inc.
  
 This software contains proprietary and confidential information,
 including trade secrets, belonging to Gaussian, Inc.
  
 This software is provided under written license and may be
 used, copied, transmitted, or stored only in accord with that
 written license.
  
 The following legend is applicable only to US Government
 contracts under FAR:
  
                    RESTRICTED RIGHTS LEGEND
  
 Use, reproduction and disclosure by the US Government is
 subject to restrictions as set forth in subparagraphs (a)
 and (c) of the Commercial Computer Software - Restricted
 Rights clause in FAR 52.227-19.
  
 Gaussian, Inc.
 340 Quinnipiac St., Bldg. 40, Wallingford CT 06492
  
  
 ---------------------------------------------------------------
 Warning -- This program may not be used in any manner that
 competes with the business of Gaussian, Inc. or will provide
 assistance to any competitor of Gaussian, Inc.  The licensee
 of this program is prohibited from giving any competitor of
 Gaussian, Inc. access to this program.  By using this program,
 the user acknowledges that Gaussian, Inc. is engaged in the
 business of creating and licensing software in the field of
 computational chemistry and represents and warrants to the
 licensee that it is not a competitor of Gaussian, Inc. and that
 it will not use this program in any manner prohibited above.
 ---------------------------------------------------------------
  

 Cite this work as:
 Gaussian 16, Revision B.01,
 M. J. Frisch, G. W. Trucks, H. B. Schlegel, G. E. Scuseria, 
 M. A. Robb, J. R. Cheeseman, G. Scalmani, V. Barone, 
 G. A. Petersson, H. Nakatsuji, X. Li, M. Caricato, A. V. Marenich, 
 J. Bloino, B. G. Janesko, R. Gomperts, B. Mennucci, H. P. Hratchian, 
 J. V. Ortiz, A. F. Izmaylov, J. L. Sonnenberg, D. Williams-Young, 
 F. Ding, F. Lipparini, F. Egidi, J. Goings, B. Peng, A. Petrone, 
 T. Henderson, D. Ranasinghe, V. G. Zakrzewski, J. Gao, N. Rega, 
 G. Zheng, W. Liang, M. Hada, M. Ehara, K. Toyota, R. Fukuda, 
 J. Hasegawa, M. Ishida, T. Nakajima, Y. Honda, O. Kitao, H. Nakai, 
 T. Vreven, K. Throssell, J. A. Montgomery, Jr., J. E. Peralta, 
 F. Ogliaro, M. J. Bearpark, J. J. Heyd, E. N. Brothers, K. N. Kudin, 
 V. N. Staroverov, T. A. Keith, R. Kobayashi, J. Normand, 
 K. Raghavachari, A. P. Rendell, J. C. Burant, S. S. Iyengar, 
 J. Tomasi, M. Cossi, J. M. Millam, M. Klene, C. Adamo, R. Cammi, 
 J. W. Ochterski, R. L. Martin, K. Morokuma, O. Farkas, 
 J. B. Foresman, and D. J. Fox, Gaussian, Inc., Wallingford CT, 2016.
 
 ******************************************
 Gaussian 16:  EM64L-G16RevB.01 20-Dec-2017
                17-Nov-2021 
 ******************************************
 %nprocshared=4
 Will use up to    4 processors via shared memory.
 %mem=4GB
 %chk=brch3cl_irc3.chk
 %nosave
 -------------------------------------------------------
 # irc=(calcfc,maxpoints=20,recalc=3) b3lyp/6-311+g(d,p)
 -------------------------------------------------------
 1/10=4,18=10,26=3,38=1,42=20,44=3,71=3,172=1/1,23;
 2/12=2,17=6,18=5,29=1,40=1/2;
 3/5=4,6=6,7=111,11=2,25=1,30=1,71=2,74=-5,140=1/1,2,3;
 4//1;
 5/5=2,38=5/2;
 8/6=4,10=90,11=11/1;
 11/6=1,8=1,9=11,15=111,16=1/1,2,10;
 10/6=1,13=1/2;
 6/7=2,8=2,9=2,10=2,28=1/1;
 7/10=1,18=20,25=1/1,2,3,16;
 1/10=4,18=10,26=3,42=20,44=3,71=3/23(2);
 2/29=1/2;
 99/5=20/99;
 2/29=1/2;
 3/5=4,6=6,7=111,11=2,25=1,30=1,71=2,74=-5,140=1/1,2,3;
 4/5=5,16=3,69=1/1;
 5/5=2,38=5/2;
 8/6=4,10=90,11=11/1;
 11/6=1,8=1,9=11,15=111,16=1/1,2,10;
 10/6=1,13=1/2;
 7/10=1,18=20,25=1/1,2,3,16;
 1/18=10,26=3,42=20,44=3,71=3/23(-8);
 2/29=1/2;
 6/7=2,8=2,9=2,10=2,19=2,28=1/1;
 99/5=20,9=1/99;
 --------------------
 BrCH3Cl_6311G_dp_IRC
 --------------------
 Symbolic Z-matrix:
 Charge = -1 Multiplicity = 1
 C                     3.02112   0.02739   0.21266 
 H                     2.63591   0.33825  -0.73596 
 H                     2.82869   0.6141    1.08652 
 H                     3.59876  -0.87019   0.28741 
 Br                    1.08262  -1.18775   0.60164 
 Cl                    4.85312   1.17577  -0.15494 
 
 IRC-IRC-IRC-IRC-IRC-IRC-IRC-IRC-IRC-IRC-IRC-IRC-IRC-IRC-IRC-IRC-IRC-IRC
 ------------------------------------------------------------------------
 INPUT DATA FOR L123
 ------------------------------------------------------------------------
 GENERAL PARAMETERS:
 Follow reaction path in both directions.
 Maximum points per path      =  20
 Step size                    =   0.100 bohr
 Integration scheme           = HPC                                 
    Redo corrector integration= Yes                                 
    DWI Weight Power          =  2
    DWI will use Hessian update vectors when possible.
    Max correction cycles     =  20
 Initial Hessian              = CalcFC
 Hessian evaluation           = Analytic every   3 predictor steps
                              = Update at all corrector steps
 Hessian updating method      = Bofill                              
 ------------------------------------------------------------------------
 IRC-IRC-IRC-IRC-IRC-IRC-IRC-IRC-IRC-IRC-IRC-IRC-IRC-IRC-IRC-IRC-IRC-IRC
                          Input orientation:                          
 ---------------------------------------------------------------------
 Center     Atomic      Atomic             Coordinates (Angstroms)
 Number     Number       Type             X           Y           Z
 ---------------------------------------------------------------------
      1          6           0        3.021118    0.027388    0.212658
      2          1           0        2.635908    0.338249   -0.735961
      3          1           0        2.828685    0.614103    1.086521
      4          1           0        3.598758   -0.870188    0.287412
      5         35           0        1.082618   -1.187752    0.601638
      6         17           0        4.853118    1.175766   -0.154943
 ---------------------------------------------------------------------
                    Distance matrix (angstroms):
                    1          2          3          4          5
     1  C    0.000000
     2  H    1.070000   0.000000
     3  H    1.070000   1.853293   0.000000
     4  H    1.070000   1.853293   1.853296   0.000000
     5  Br   2.320700   2.555496   2.555493   2.555493   0.000000
     6  Cl   2.193200   2.440294   2.440291   2.440292   4.513900
                    6
     6  Cl   0.000000
 Symmetry turned off by external request.
 This structure is nearly, but not quite of a higher symmetry.
 Consider Symm=Loose if the higher symmetry is desired.
 Stoichiometry    CH3BrCl(1-)
 Framework group  C1[X(CH3BrCl)]
 Deg. of freedom    12
 Full point group                 C1      NOp   1
 Rotational constants (GHZ):         145.9967687           0.9966935           0.9966935
 Standard basis: 6-311+G(d,p) (5D, 7F)
   118 basis functions,   207 primitive gaussians,   123 cartesian basis functions
    31 alpha electrons       31 beta electrons
       nuclear repulsion energy       184.8101875017 Hartrees.
 NAtoms=    6 NActive=    6 NUniq=    6 SFac= 1.00D+00 NAtFMM=   60 NAOKFM=F Big=F
 Integral buffers will be    131072 words long.
 Raffenetti 2 integral format.
 Two-electron integral symmetry is turned off.
 One-electron integrals computed using PRISM.
 NBasis=   118 RedAO= T EigKep=  1.25D-03  NBF=   118
 NBsUse=   118 1.00D-06 EigRej= -1.00D+00 NBFU=   118
 ExpMin= 3.50D-02 ExpMax= 4.40D+05 ExpMxC= 1.51D+04 IAcc=3 IRadAn=         5 AccDes= 0.00D+00
 Harris functional with IExCor=  402 and IRadAn=       5 diagonalized for initial guess.
 HarFok:  IExCor=  402 AccDes= 0.00D+00 IRadAn=         5 IDoV= 1 UseB2=F ITyADJ=14
 ICtDFT=  3500011 ScaDFX=  1.000000  1.000000  1.000000  1.000000
 FoFCou: FMM=F IPFlag=           0 FMFlag=      100000 FMFlg1=           0
         NFxFlg=           0 DoJE=T BraDBF=F KetDBF=T FulRan=T
         wScrn=  0.000000 ICntrl=       500 IOpCl=  0 I1Cent=   200000004 NGrid=           0
         NMat0=    1 NMatS0=      1 NMatT0=    0 NMatD0=    1 NMtDS0=    0 NMtDT0=    0
 Symmetry not used in FoFCou.
 Keep R1 ints in memory in canonical form, NReq=28441312.
 Requested convergence on RMS density matrix=1.00D-08 within 128 cycles.
 Requested convergence on MAX density matrix=1.00D-06.
 Requested convergence on             energy=1.00D-06.
 No special actions if energy rises.
 SCF Done:  E(RB3LYP) =  -3074.37855011     A.U. after   12 cycles
            NFock= 12  Conv=0.33D-08     -V/T= 2.0014
 DoSCS=F DFT=T ScalE2(SS,OS)=  1.000000  1.000000
 Range of M.O.s used for correlation:     1   118
 NBasis=   118 NAE=    31 NBE=    31 NFC=     0 NFV=     0
 NROrb=    118 NOA=    31 NOB=    31 NVA=    87 NVB=    87

 **** Warning!!: The largest alpha MO coefficient is  0.12091654D+02

 Symmetrizing basis deriv contribution to polar:
 IMax=3 JMax=2 DiffMx= 0.00D+00
 G2DrvN: will do     7 centers at a time, making    1 passes.
 Calling FoFCou, ICntrl=  3107 FMM=F I1Cent=   0 AccDes= 0.00D+00.
 End of G2Drv F.D. properties file   721 does not exist.
 End of G2Drv F.D. properties file   722 does not exist.
 End of G2Drv F.D. properties file   788 does not exist.
          IDoAtm=111111
          Differentiating once with respect to nuclear coordinates.
 Keep R1 ints in memory in canonical form, NReq=28433125.
          There are    21 degrees of freedom in the 1st order CPHF.  IDoFFX=6 NUNeed=     0.
     15 vectors produced by pass  0 Test12= 1.28D-14 4.76D-09 XBig12= 1.47D-01 2.14D-01.
 AX will form    15 AO Fock derivatives at one time.
     15 vectors produced by pass  1 Test12= 1.28D-14 4.76D-09 XBig12= 2.07D-02 4.22D-02.
     15 vectors produced by pass  2 Test12= 1.28D-14 4.76D-09 XBig12= 1.75D-03 1.24D-02.
     15 vectors produced by pass  3 Test12= 1.28D-14 4.76D-09 XBig12= 1.15D-04 2.55D-03.
     15 vectors produced by pass  4 Test12= 1.28D-14 4.76D-09 XBig12= 2.97D-06 3.82D-04.
     11 vectors produced by pass  5 Test12= 1.28D-14 4.76D-09 XBig12= 8.67D-09 3.00D-05.
     10 vectors produced by pass  6 Test12= 1.28D-14 4.76D-09 XBig12= 4.75D-11 2.28D-06.
      1 vectors produced by pass  7 Test12= 1.28D-14 4.76D-09 XBig12= 1.49D-13 1.19D-07.
 InvSVY:  IOpt=1 It=  1 EMax= 1.11D-15
 Solved reduced A of dimension    97 with    15 vectors.
 End of Minotr F.D. properties file   721 does not exist.
 End of Minotr F.D. properties file   722 does not exist.
 End of Minotr F.D. properties file   788 does not exist.

 **********************************************************************

            Population analysis using the SCF Density.

 **********************************************************************

 Alpha  occ. eigenvalues -- -482.60657-101.31756 -62.26009 -56.07870 -56.07730
 Alpha  occ. eigenvalues --  -56.07730 -10.07133  -9.23199  -8.46942  -6.99288
 Alpha  occ. eigenvalues --   -6.98870  -6.98870  -6.29550  -6.29061  -6.29061
 Alpha  occ. eigenvalues --   -2.40737  -2.40598  -2.40598  -2.40212  -2.40212
 Alpha  occ. eigenvalues --   -0.61575  -0.56555  -0.50218  -0.30170  -0.30170
 Alpha  occ. eigenvalues --   -0.18899  -0.11226  -0.11226  -0.09432  -0.09432
 Alpha  occ. eigenvalues --   -0.08064
 Alpha virt. eigenvalues --    0.12630   0.13082   0.16779   0.16779   0.17065
 Alpha virt. eigenvalues --    0.18281   0.20096   0.20096   0.22049   0.23529
 Alpha virt. eigenvalues --    0.23529   0.28567   0.28567   0.28666   0.33095
 Alpha virt. eigenvalues --    0.39025   0.53607   0.54451   0.54451   0.57579
 Alpha virt. eigenvalues --    0.57580   0.58139   0.63138   0.63139   0.72943
 Alpha virt. eigenvalues --    0.72944   0.73721   0.79310   0.83374   0.83374
 Alpha virt. eigenvalues --    0.84291   0.84291   0.86764   0.93744   1.08278
 Alpha virt. eigenvalues --    1.08278   1.09322   1.09322   1.12227   1.17649
 Alpha virt. eigenvalues --    1.27241   1.27241   1.33146   1.53602   1.64146
 Alpha virt. eigenvalues --    1.64146   1.71536   2.04726   2.06083   2.06083
 Alpha virt. eigenvalues --    2.07825   2.07826   2.20147   2.20149   2.33901
 Alpha virt. eigenvalues --    2.47085   2.47086   2.53750   2.61193   2.61193
 Alpha virt. eigenvalues --    2.74870   2.78485   2.78485   3.05888   3.19117
 Alpha virt. eigenvalues --    3.87170   3.87171   4.35130   4.35131   4.38405
 Alpha virt. eigenvalues --    4.38405   4.61622   6.80063   7.75271   7.75273
 Alpha virt. eigenvalues --    7.86129   9.88378  24.06606  26.02115  26.02115
 Alpha virt. eigenvalues --   26.36263  48.09822 215.86717 289.95957 289.95957
 Alpha virt. eigenvalues --  290.067761020.87534
          Condensed to atoms (all electrons):
               1          2          3          4          5          6
     1  C    5.245831   0.444383   0.444384   0.444384  -0.017691  -0.042524
     2  H    0.444383   0.526031  -0.016799  -0.016799  -0.056802  -0.088323
     3  H    0.444384  -0.016799   0.526031  -0.016799  -0.056803  -0.088325
     4  H    0.444384  -0.016799  -0.016799   0.526031  -0.056803  -0.088324
     5  Br  -0.017691  -0.056802  -0.056803  -0.056803  35.774287   0.061996
     6  Cl  -0.042524  -0.088323  -0.088325  -0.088324   0.061996  17.703481
 Mulliken charges:
               1
     1  C   -0.518767
     2  H    0.208310
     3  H    0.208310
     4  H    0.208310
     5  Br  -0.648184
     6  Cl  -0.457980
 Sum of Mulliken charges =  -1.00000
 Mulliken charges with hydrogens summed into heavy atoms:
               1
     1  C    0.106164
     5  Br  -0.648184
     6  Cl  -0.457980
 APT charges:
               1
     1  C   -0.990127
     2  H    0.216988
     3  H    0.367637
     4  H    0.693723
     5  Br  -0.457153
     6  Cl  -0.831069
 Sum of APT charges =  -1.00000
 APT charges with hydrogens summed into heavy atoms:
               1
     1  C    0.288221
     5  Br  -0.457153
     6  Cl  -0.831069
 Electronic spatial extent (au):  <R**2>=           2345.1173
 Charge=             -1.0000 electrons
 Dipole moment (field-independent basis, Debye):
    X=            -13.9186    Y=              0.2398    Z=             -1.1404  Tot=             13.9673
 Quadrupole moment (field-independent basis, Debye-Ang):
   XX=           -109.4652   YY=            -53.6949   ZZ=            -44.9786
   XY=            -15.2576   XZ=              1.8021   YZ=              3.2579
 Traceless Quadrupole moment (field-independent basis, Debye-Ang):
   XX=            -40.0856   YY=             15.6846   ZZ=             24.4010
   XY=            -15.2576   XZ=              1.8021   YZ=              3.2579
 Octapole moment (field-independent basis, Debye-Ang**2):
  XXX=           -695.6720  YYY=             23.3923  ZZZ=            -37.6440  XYY=           -146.5468
  XXY=            -85.0276  XXZ=              2.7842  XZZ=           -119.5222  YZZ=             10.2995
  YYZ=            -14.1407  XYZ=              6.0784
 Hexadecapole moment (field-independent basis, Debye-Ang**3):
 XXXX=          -4509.5848 YYYY=           -403.1649 ZZZZ=           -123.9743 XXXY=           -644.2564
 XXXZ=             50.4143 YYYX=           -203.2283 YYYZ=             59.9811 ZZZX=            -20.3678
 ZZZY=             58.2922 XXYY=           -635.5566 XXZZ=           -486.1459 YYZZ=            -87.4169
 XXYZ=             34.2010 YYXZ=             -6.7149 ZZXY=            -57.5104
 N-N= 1.848101875017D+02 E-N=-7.722900184691D+03  KE= 3.070193349114D+03
  Exact polarizability:   0.000   0.000   0.000   0.000   0.000   0.000
 Approx polarizability: 143.072  54.168  90.613 -17.340 -10.869  60.137
 Calling FoFJK, ICntrl=    100147 FMM=F ISym2X=0 I1Cent= 0 IOpClX= 0 NMat=1 NMatS=1 NMatT=0.
 -------------------------------------------------------------------
 Center     Atomic                   Forces (Hartrees/Bohr)
 Number     Number              X              Y              Z
 -------------------------------------------------------------------
      1        6           0.004408090    0.002762606   -0.000884082
      2        1          -0.000521519   -0.000430069    0.000295096
      3        1          -0.000557878   -0.000485222   -0.000047412
      4        1          -0.000704315   -0.000201649    0.000105518
      5       35          -0.023712707   -0.014864980    0.004763706
      6       17           0.021088329    0.013219315   -0.004232826
 -------------------------------------------------------------------
 Cartesian Forces:  Max     0.023712707 RMS     0.009045635
 IRC-IRC-IRC-IRC-IRC-IRC-IRC-IRC-IRC-IRC-IRC-IRC-IRC-IRC-IRC-IRC-IRC-IRC
          ******** Start new reaction path calculation ********
 Supplied step size of   0.1000 bohr.
    Integration on MW PES will use step size of   0.3574 sqrt(amu)*bohr.
 Point Number:   0          Path Number:   1
 Calculating another point on the path.
 IRC-IRC-IRC-IRC-IRC-IRC-IRC-IRC-IRC-IRC-IRC-IRC-IRC-IRC-IRC-IRC-IRC-IRC
                          Input orientation:                          
 ---------------------------------------------------------------------
 Center     Atomic      Atomic             Coordinates (Angstroms)
 Number     Number       Type             X           Y           Z
 ---------------------------------------------------------------------
      1          6           0        0.646654    0.405368   -0.129740
      2          1           0        0.307878    0.745346   -1.087694
      3          1           0        0.500661    1.021205    0.734820
      4          1           0        1.270745   -0.463115   -0.064301
      5         35           0       -1.245433   -0.780694    0.249905
      6         17           0        2.528881    1.585213   -0.507444
 ---------------------------------------------------------------------
                    Distance matrix (angstroms):
                    1          2          3          4          5
     1  C    0.000000
     2  H    1.071462   0.000000
     3  H    1.071463   1.853327   0.000000
     4  H    1.071464   1.853328   1.853330   0.000000
     5  Br   2.265141   2.555532   2.555548   2.555530   0.000000
     6  Cl   2.253325   2.444365   2.444382   2.444366   4.518466
                    6
     6  Cl   0.000000
 Symmetry turned off by external request.
 Stoichiometry    CH3BrCl(1-)
 Framework group  C1[X(CH3BrCl)]
 Deg. of freedom    12
 Full point group                 C1      NOp   1
 Rotational constants (GHZ):         145.9914309           0.9968919           0.9968919
 Standard basis: 6-311+G(d,p) (5D, 7F)
   118 basis functions,   207 primitive gaussians,   123 cartesian basis functions
    31 alpha electrons       31 beta electrons
       nuclear repulsion energy       185.2265352423 Hartrees.
 NAtoms=    6 NActive=    6 NUniq=    6 SFac= 1.00D+00 NAtFMM=   60 NAOKFM=F Big=F
 Integral buffers will be    131072 words long.
 Raffenetti 2 integral format.
 Two-electron integral symmetry is turned off.
 One-electron integrals computed using PRISM.
 NBasis=   118 RedAO= T EigKep=  1.21D-03  NBF=   118
 NBsUse=   118 1.00D-06 EigRej= -1.00D+00 NBFU=   118
 Initial guess from the checkpoint file:  "brch3cl_irc3.chk"
 B after Tr=    -4.405994    0.765084   -0.663348
         Rot=    1.000000   -0.000000    0.000000   -0.000000 Ang=  -0.00 deg.
 ExpMin= 3.50D-02 ExpMax= 4.40D+05 ExpMxC= 1.51D+04 IAcc=3 IRadAn=         5 AccDes= 0.00D+00
 Harris functional with IExCor=  402 and IRadAn=       5 diagonalized for initial guess.
 HarFok:  IExCor=  402 AccDes= 0.00D+00 IRadAn=         5 IDoV= 1 UseB2=F ITyADJ=14
 ICtDFT=  3500011 ScaDFX=  1.000000  1.000000  1.000000  1.000000
 FoFCou: FMM=F IPFlag=           0 FMFlag=      100000 FMFlg1=           0
         NFxFlg=           0 DoJE=T BraDBF=F KetDBF=T FulRan=T
         wScrn=  0.000000 ICntrl=       500 IOpCl=  0 I1Cent=   200000004 NGrid=           0
         NMat0=    1 NMatS0=      1 NMatT0=    0 NMatD0=    1 NMtDS0=    0 NMtDT0=    0
 Symmetry not used in FoFCou.
 Keep R1 ints in memory in canonical form, NReq=28441312.
 Requested convergence on RMS density matrix=1.00D-08 within 128 cycles.
 Requested convergence on MAX density matrix=1.00D-06.
 Requested convergence on             energy=1.00D-06.
 No special actions if energy rises.
 SCF Done:  E(RB3LYP) =  -3074.37852518     A.U. after   10 cycles
            NFock= 10  Conv=0.32D-08     -V/T= 2.0014
 DoSCS=F DFT=T ScalE2(SS,OS)=  1.000000  1.000000
 Range of M.O.s used for correlation:     1   118
 NBasis=   118 NAE=    31 NBE=    31 NFC=     0 NFV=     0
 NROrb=    118 NOA=    31 NOB=    31 NVA=    87 NVB=    87

 **** Warning!!: The largest alpha MO coefficient is  0.11467922D+02

 Symmetrizing basis deriv contribution to polar:
 IMax=3 JMax=2 DiffMx= 0.00D+00
 Calling FoFJK, ICntrl=      2147 FMM=F ISym2X=0 I1Cent= 0 IOpClX= 0 NMat=1 NMatS=1 NMatT=0.
 -------------------------------------------------------------------
 Center     Atomic                   Forces (Hartrees/Bohr)
 Number     Number              X              Y              Z
 -------------------------------------------------------------------
      1        6          -0.000208265   -0.000130279    0.000043478
      2        1          -0.000227752   -0.000696277    0.001073288
      3        1          -0.000421401   -0.000976648   -0.000755828
      4        1          -0.001195954    0.000518082    0.000048699
      5       35          -0.021279572   -0.013341184    0.004273669
      6       17           0.023332944    0.014626306   -0.004683306
 -------------------------------------------------------------------
 Cartesian Forces:  Max     0.023332944 RMS     0.008927220
 IRC-IRC-IRC-IRC-IRC-IRC-IRC-IRC-IRC-IRC-IRC-IRC-IRC-IRC-IRC-IRC-IRC-IRC
 Pt  1 Step number   1 out of a maximum of  20
 Modified Bulirsch-Stoer Extrapolation Cycles:
    EPS =    0.000010000000000
      PEZero:  N= 2 I= 1 D=  9.31D-04 Err=  1.88D-03
      PEZero:  N= 3 I= 2 D=  9.31D-04 Err=  1.25D-03
      PEZero:  N= 3 I= 1 D=  1.86D-03 Err=  5.37D-07
 Maximum DWI energy   std dev =  0.000003069 at pt    25
 Maximum DWI gradient std dev =  0.067674496 at pt    -1
 CORRECTOR INTEGRATION CONVERGENCE:
   Recorrection delta-x convergence threshold:    0.010000
   Delta-x Convergence NOT Met
 IRC-IRC-IRC-IRC-IRC-IRC-IRC-IRC-IRC-IRC-IRC-IRC-IRC-IRC-IRC-IRC-IRC-IRC
                          Input orientation:                          
 ---------------------------------------------------------------------
 Center     Atomic      Atomic             Coordinates (Angstroms)
 Number     Number       Type             X           Y           Z
 ---------------------------------------------------------------------
      1          6           0        0.670967    0.420603   -0.134633
      2          1           0        0.302569    0.741767   -1.086189
      3          1           0        0.495242    1.017480    0.735520
      4          1           0        1.264987   -0.466163   -0.063243
      5         35           0       -1.252124   -0.784888    0.251249
      6         17           0        2.536111    1.589746   -0.508892
 ---------------------------------------------------------------------
                    Distance matrix (angstroms):
                    1          2          3          4          5
     1  C    0.000000
     2  H    1.069730   0.000000
     3  H    1.069723   1.852502   0.000000
     4  H    1.069724   1.852501   1.852492   0.000000
     5  Br   2.302258   2.556655   2.556626   2.556626   0.000000
     6  Cl   2.232875   2.457856   2.457885   2.457870   4.535133
                    6
     6  Cl   0.000000
 Symmetry turned off by external request.
 Stoichiometry    CH3BrCl(1-)
 Framework group  C1[X(CH3BrCl)]
 Deg. of freedom    12
 Full point group                 C1      NOp   1
 Rotational constants (GHZ):         146.1222849           0.9886194           0.9886193
 Standard basis: 6-311+G(d,p) (5D, 7F)
   118 basis functions,   207 primitive gaussians,   123 cartesian basis functions
    31 alpha electrons       31 beta electrons
       nuclear repulsion energy       184.3437453417 Hartrees.
 NAtoms=    6 NActive=    6 NUniq=    6 SFac= 1.00D+00 NAtFMM=   60 NAOKFM=F Big=F
 Integral buffers will be    131072 words long.
 Raffenetti 2 integral format.
 Two-electron integral symmetry is turned off.
 One-electron integrals computed using PRISM.
 NBasis=   118 RedAO= T EigKep=  1.24D-03  NBF=   118
 NBsUse=   118 1.00D-06 EigRej= -1.00D+00 NBFU=   118
 Initial guess from the checkpoint file:  "brch3cl_irc3.chk"
 B after Tr=     0.000561    0.000352   -0.000114
         Rot=    1.000000   -0.000000   -0.000000   -0.000000 Ang=  -0.00 deg.
 ExpMin= 3.50D-02 ExpMax= 4.40D+05 ExpMxC= 1.51D+04 IAcc=3 IRadAn=         5 AccDes= 0.00D+00
 Harris functional with IExCor=  402 and IRadAn=       5 diagonalized for initial guess.
 HarFok:  IExCor=  402 AccDes= 0.00D+00 IRadAn=         5 IDoV= 1 UseB2=F ITyADJ=14
 ICtDFT=  3500011 ScaDFX=  1.000000  1.000000  1.000000  1.000000
 FoFCou: FMM=F IPFlag=           0 FMFlag=      100000 FMFlg1=           0
         NFxFlg=           0 DoJE=T BraDBF=F KetDBF=T FulRan=T
         wScrn=  0.000000 ICntrl=       500 IOpCl=  0 I1Cent=   200000004 NGrid=           0
         NMat0=    1 NMatS0=      1 NMatT0=    0 NMatD0=    1 NMtDS0=    0 NMtDT0=    0
 Symmetry not used in FoFCou.
 Keep R1 ints in memory in canonical form, NReq=28441312.
 Requested convergence on RMS density matrix=1.00D-08 within 128 cycles.
 Requested convergence on MAX density matrix=1.00D-06.
 Requested convergence on             energy=1.00D-06.
 No special actions if energy rises.
 SCF Done:  E(RB3LYP) =  -3074.37940342     A.U. after    9 cycles
            NFock=  9  Conv=0.64D-08     -V/T= 2.0014
 DoSCS=F DFT=T ScalE2(SS,OS)=  1.000000  1.000000
 Range of M.O.s used for correlation:     1   118
 NBasis=   118 NAE=    31 NBE=    31 NFC=     0 NFV=     0
 NROrb=    118 NOA=    31 NOB=    31 NVA=    87 NVB=    87

 **** Warning!!: The largest alpha MO coefficient is  0.11649671D+02

 Symmetrizing basis deriv contribution to polar:
 IMax=3 JMax=2 DiffMx= 0.00D+00
 Calling FoFJK, ICntrl=      2147 FMM=F ISym2X=0 I1Cent= 0 IOpClX= 0 NMat=1 NMatS=1 NMatT=0.
 -------------------------------------------------------------------
 Center     Atomic                   Forces (Hartrees/Bohr)
 Number     Number              X              Y              Z
 -------------------------------------------------------------------
      1        6           0.001792424    0.001124740   -0.000362936
      2        1          -0.000037064    0.000019447   -0.000072320
      3        1          -0.000021649    0.000041539    0.000068980
      4        1           0.000038034   -0.000073926    0.000007137
      5       35          -0.021723502   -0.013618585    0.004363149
      6       17           0.019951758    0.012506785   -0.004004010
 -------------------------------------------------------------------
 Cartesian Forces:  Max     0.021723502 RMS     0.008338559
 IRC-IRC-IRC-IRC-IRC-IRC-IRC-IRC-IRC-IRC-IRC-IRC-IRC-IRC-IRC-IRC-IRC-IRC
 Error in corrector energy =          -0.0000023496
 Magnitude of corrector gradient =     0.0352981055
 Magnitude of analytic gradient =      0.0353775116
 Magnitude of difference =             0.0001621803
 Angle between gradients (degrees)=    0.2293
 Pt  1 Step number   2 out of a maximum of  20
 Modified Bulirsch-Stoer Extrapolation Cycles:
    EPS =    0.000010000000000
      PEZero:  N= 2 I= 1 D=  9.31D-04 Err=  1.88D-03
      PEZero:  N= 3 I= 2 D=  9.31D-04 Err=  1.25D-03
      PEZero:  N= 3 I= 1 D=  1.86D-03 Err=  2.77D-07
 Maximum DWI energy   std dev =  0.000000936 at pt     1
 Maximum DWI gradient std dev =  0.014639334 at pt    14
 CORRECTOR INTEGRATION CONVERGENCE:
   Recorrection delta-x convergence threshold:    0.010000
   Delta-x Convergence Met
 Point Number:   1          Path Number:   1
   CHANGE IN THE REACTION COORDINATE =    0.25119
   NET REACTION COORDINATE UP TO THIS POINT =    0.25119
  # OF POINTS ALONG THE PATH =   1
  # OF STEPS =   2

 Calculating another point on the path.
 IRC-IRC-IRC-IRC-IRC-IRC-IRC-IRC-IRC-IRC-IRC-IRC-IRC-IRC-IRC-IRC-IRC-IRC
                          Input orientation:                          
 ---------------------------------------------------------------------
 Center     Atomic      Atomic             Coordinates (Angstroms)
 Number     Number       Type             X           Y           Z
 ---------------------------------------------------------------------
      1          6           0        0.676843    0.424288   -0.135823
      2          1           0        0.306796    0.744577   -1.087362
      3          1           0        0.499528    1.020388    0.734898
      4          1           0        1.269509   -0.463708   -0.064095
      5         35           0       -1.262603   -0.791458    0.253354
      6         17           0        2.557374    1.603076   -0.513160
 ---------------------------------------------------------------------
                    Distance matrix (angstroms):
                    1          2          3          4          5
     1  C    0.000000
     2  H    1.070022   0.000000
     3  H    1.070014   1.853064   0.000000
     4  H    1.070016   1.853064   1.853052   0.000000
     5  Br   2.321841   2.572923   2.572892   2.572894   0.000000
     6  Cl   2.251293   2.476254   2.476268   2.476257   4.573134
                    6
     6  Cl   0.000000
 Symmetry turned off by external request.
 Stoichiometry    CH3BrCl(1-)
 Framework group  C1[X(CH3BrCl)]
 Deg. of freedom    12
 Full point group                 C1      NOp   1
 Rotational constants (GHZ):         146.0337161           0.9723153           0.9723152
 Standard basis: 6-311+G(d,p) (5D, 7F)
   118 basis functions,   207 primitive gaussians,   123 cartesian basis functions
    31 alpha electrons       31 beta electrons
       nuclear repulsion energy       182.9403059610 Hartrees.
 NAtoms=    6 NActive=    6 NUniq=    6 SFac= 1.00D+00 NAtFMM=   60 NAOKFM=F Big=F
 Integral buffers will be    131072 words long.
 Raffenetti 2 integral format.
 Two-electron integral symmetry is turned off.
 One-electron integrals computed using PRISM.
 NBasis=   118 RedAO= T EigKep=  1.27D-03  NBF=   118
 NBsUse=   118 1.00D-06 EigRej= -1.00D+00 NBFU=   118
 Initial guess from the checkpoint file:  "brch3cl_irc3.chk"
 B after Tr=     0.001332    0.000835   -0.000268
         Rot=    1.000000    0.000003    0.000001   -0.000001 Ang=   0.00 deg.
 ExpMin= 3.50D-02 ExpMax= 4.40D+05 ExpMxC= 1.51D+04 IAcc=3 IRadAn=         5 AccDes= 0.00D+00
 Harris functional with IExCor=  402 and IRadAn=       5 diagonalized for initial guess.
 HarFok:  IExCor=  402 AccDes= 0.00D+00 IRadAn=         5 IDoV= 1 UseB2=F ITyADJ=14
 ICtDFT=  3500011 ScaDFX=  1.000000  1.000000  1.000000  1.000000
 FoFCou: FMM=F IPFlag=           0 FMFlag=      100000 FMFlg1=           0
         NFxFlg=           0 DoJE=T BraDBF=F KetDBF=T FulRan=T
         wScrn=  0.000000 ICntrl=       500 IOpCl=  0 I1Cent=   200000004 NGrid=           0
         NMat0=    1 NMatS0=      1 NMatT0=    0 NMatD0=    1 NMtDS0=    0 NMtDT0=    0
 Symmetry not used in FoFCou.
 Keep R1 ints in memory in canonical form, NReq=28441312.
 Requested convergence on RMS density matrix=1.00D-08 within 128 cycles.
 Requested convergence on MAX density matrix=1.00D-06.
 Requested convergence on             energy=1.00D-06.
 No special actions if energy rises.
 SCF Done:  E(RB3LYP) =  -3074.38107147     A.U. after    8 cycles
            NFock=  8  Conv=0.66D-08     -V/T= 2.0014
 DoSCS=F DFT=T ScalE2(SS,OS)=  1.000000  1.000000
 Range of M.O.s used for correlation:     1   118
 NBasis=   118 NAE=    31 NBE=    31 NFC=     0 NFV=     0
 NROrb=    118 NOA=    31 NOB=    31 NVA=    87 NVB=    87

 **** Warning!!: The largest alpha MO coefficient is  0.11445223D+02

 Symmetrizing basis deriv contribution to polar:
 IMax=3 JMax=2 DiffMx= 0.00D+00
 Calling FoFJK, ICntrl=      2147 FMM=F ISym2X=0 I1Cent= 0 IOpClX= 0 NMat=1 NMatS=1 NMatT=0.
 -------------------------------------------------------------------
 Center     Atomic                   Forces (Hartrees/Bohr)
 Number     Number              X              Y              Z
 -------------------------------------------------------------------
      1        6           0.001647294    0.001032499   -0.000334070
      2        1           0.000083472    0.000054064   -0.000020662
      3        1           0.000083997    0.000055174   -0.000014453
      4        1           0.000086750    0.000050187   -0.000016911
      5       35          -0.018902288   -0.011848873    0.003797910
      6       17           0.017000775    0.010656949   -0.003411814
 -------------------------------------------------------------------
 Cartesian Forces:  Max     0.018902288 RMS     0.007189019
 IRC-IRC-IRC-IRC-IRC-IRC-IRC-IRC-IRC-IRC-IRC-IRC-IRC-IRC-IRC-IRC-IRC-IRC
 Pt  2 Step number   1 out of a maximum of  20
 Modified Bulirsch-Stoer Extrapolation Cycles:
    EPS =    0.000010000000000
      PEZero:  N= 2 I= 1 D=  1.86D-03 Err=  2.35D-05
      PEZero:  N= 3 I= 2 D=  1.86D-03 Err=  1.57D-05
      PEZero:  N= 3 I= 1 D=  3.72D-03 Err=  8.03D-08
 Maximum DWI energy   std dev =  0.000001134 at pt    35
 Maximum DWI gradient std dev =  0.006945548 at pt    59
 CORRECTOR INTEGRATION CONVERGENCE:
   Recorrection delta-x convergence threshold:    0.010000
   Delta-x Convergence Met
 Point Number:   2          Path Number:   1
   CHANGE IN THE REACTION COORDINATE =    0.35727
   NET REACTION COORDINATE UP TO THIS POINT =    0.60846
  # OF POINTS ALONG THE PATH =   2
  # OF STEPS =   1

 Calculating another point on the path.
 IRC-IRC-IRC-IRC-IRC-IRC-IRC-IRC-IRC-IRC-IRC-IRC-IRC-IRC-IRC-IRC-IRC-IRC
                          Input orientation:                          
 ---------------------------------------------------------------------
 Center     Atomic      Atomic             Coordinates (Angstroms)
 Number     Number       Type             X           Y           Z
 ---------------------------------------------------------------------
      1          6           0        0.683124    0.428223   -0.137099
      2          1           0        0.311816    0.747830   -1.088603
      3          1           0        0.504580    1.023707    0.734037
      4          1           0        1.274729   -0.460699   -0.065110
      5         35           0       -1.273125   -0.798053    0.255469
      6         17           0        2.578532    1.616338   -0.517406
 ---------------------------------------------------------------------
                    Distance matrix (angstroms):
                    1          2          3          4          5
     1  C    0.000000
     2  H    1.070223   0.000000
     3  H    1.070213   1.853451   0.000000
     4  H    1.070216   1.853451   1.853437   0.000000
     5  Br   2.341959   2.590042   2.589995   2.590008   0.000000
     6  Cl   2.269102   2.493708   2.493712   2.493704   4.611061
                    6
     6  Cl   0.000000
 Symmetry turned off by external request.
 Stoichiometry    CH3BrCl(1-)
 Framework group  C1[X(CH3BrCl)]
 Deg. of freedom    12
 Full point group                 C1      NOp   1
 Rotational constants (GHZ):         145.9728067           0.9564127           0.9564127
 Standard basis: 6-311+G(d,p) (5D, 7F)
   118 basis functions,   207 primitive gaussians,   123 cartesian basis functions
    31 alpha electrons       31 beta electrons
       nuclear repulsion energy       181.5539056993 Hartrees.
 NAtoms=    6 NActive=    6 NUniq=    6 SFac= 1.00D+00 NAtFMM=   60 NAOKFM=F Big=F
 Integral buffers will be    131072 words long.
 Raffenetti 2 integral format.
 Two-electron integral symmetry is turned off.
 One-electron integrals computed using PRISM.
 NBasis=   118 RedAO= T EigKep=  1.31D-03  NBF=   118
 NBsUse=   118 1.00D-06 EigRej= -1.00D+00 NBFU=   118
 Initial guess from the checkpoint file:  "brch3cl_irc3.chk"
 B after Tr=     0.001375    0.000862   -0.000277
         Rot=    1.000000    0.000003    0.000001   -0.000001 Ang=   0.00 deg.
 ExpMin= 3.50D-02 ExpMax= 4.40D+05 ExpMxC= 1.51D+04 IAcc=3 IRadAn=         5 AccDes= 0.00D+00
 Harris functional with IExCor=  402 and IRadAn=       5 diagonalized for initial guess.
 HarFok:  IExCor=  402 AccDes= 0.00D+00 IRadAn=         5 IDoV= 1 UseB2=F ITyADJ=14
 ICtDFT=  3500011 ScaDFX=  1.000000  1.000000  1.000000  1.000000
 FoFCou: FMM=F IPFlag=           0 FMFlag=      100000 FMFlg1=           0
         NFxFlg=           0 DoJE=T BraDBF=F KetDBF=T FulRan=T
         wScrn=  0.000000 ICntrl=       500 IOpCl=  0 I1Cent=   200000004 NGrid=           0
         NMat0=    1 NMatS0=      1 NMatT0=    0 NMatD0=    1 NMtDS0=    0 NMtDT0=    0
 Symmetry not used in FoFCou.
 Keep R1 ints in memory in canonical form, NReq=28441312.
 Requested convergence on RMS density matrix=1.00D-08 within 128 cycles.
 Requested convergence on MAX density matrix=1.00D-06.
 Requested convergence on             energy=1.00D-06.
 No special actions if energy rises.
 SCF Done:  E(RB3LYP) =  -3074.38249878     A.U. after    8 cycles
            NFock=  8  Conv=0.58D-08     -V/T= 2.0014
 DoSCS=F DFT=T ScalE2(SS,OS)=  1.000000  1.000000
 Range of M.O.s used for correlation:     1   118
 NBasis=   118 NAE=    31 NBE=    31 NFC=     0 NFV=     0
 NROrb=    118 NOA=    31 NOB=    31 NVA=    87 NVB=    87

 **** Warning!!: The largest alpha MO coefficient is  0.11247718D+02

 Symmetrizing basis deriv contribution to polar:
 IMax=3 JMax=2 DiffMx= 0.00D+00
 G2DrvN: will do     7 centers at a time, making    1 passes.
 Calling FoFCou, ICntrl=  3107 FMM=F I1Cent=   0 AccDes= 0.00D+00.
 End of G2Drv F.D. properties file   721 does not exist.
 End of G2Drv F.D. properties file   722 does not exist.
 End of G2Drv F.D. properties file   788 does not exist.
          IDoAtm=111111
          Differentiating once with respect to nuclear coordinates.
 Keep R1 ints in memory in canonical form, NReq=28433125.
          There are    21 degrees of freedom in the 1st order CPHF.  IDoFFX=6 NUNeed=     0.
     15 vectors produced by pass  0 Test12= 1.28D-14 4.76D-09 XBig12= 1.38D-01 2.38D-01.
 AX will form    15 AO Fock derivatives at one time.
     15 vectors produced by pass  1 Test12= 1.28D-14 4.76D-09 XBig12= 2.01D-02 4.51D-02.
     15 vectors produced by pass  2 Test12= 1.28D-14 4.76D-09 XBig12= 1.67D-03 1.20D-02.
     15 vectors produced by pass  3 Test12= 1.28D-14 4.76D-09 XBig12= 1.04D-04 2.31D-03.
     15 vectors produced by pass  4 Test12= 1.28D-14 4.76D-09 XBig12= 2.76D-06 3.43D-04.
     11 vectors produced by pass  5 Test12= 1.28D-14 4.76D-09 XBig12= 8.43D-09 2.94D-05.
     10 vectors produced by pass  6 Test12= 1.28D-14 4.76D-09 XBig12= 4.72D-11 2.27D-06.
      1 vectors produced by pass  7 Test12= 1.28D-14 4.76D-09 XBig12= 1.46D-13 1.18D-07.
 InvSVY:  IOpt=1 It=  1 EMax= 6.66D-16
 Solved reduced A of dimension    97 with    15 vectors.
 End of Minotr F.D. properties file   721 does not exist.
 End of Minotr F.D. properties file   722 does not exist.
 End of Minotr F.D. properties file   788 does not exist.
 Calling FoFJK, ICntrl=    100147 FMM=F ISym2X=0 I1Cent= 0 IOpClX= 0 NMat=1 NMatS=1 NMatT=0.
 -------------------------------------------------------------------
 Center     Atomic                   Forces (Hartrees/Bohr)
 Number     Number              X              Y              Z
 -------------------------------------------------------------------
      1        6           0.001566656    0.000981051   -0.000319020
      2        1           0.000110118    0.000069133   -0.000023182
      3        1           0.000109996    0.000069574   -0.000021869
      4        1           0.000110851    0.000068460   -0.000022234
      5       35          -0.016202487   -0.010155056    0.003257004
      6       17           0.014304866    0.008966839   -0.002870699
 -------------------------------------------------------------------
 Cartesian Forces:  Max     0.016202487 RMS     0.006115096
 IRC-IRC-IRC-IRC-IRC-IRC-IRC-IRC-IRC-IRC-IRC-IRC-IRC-IRC-IRC-IRC-IRC-IRC
 Pt  3 Step number   1 out of a maximum of  20
 Modified Bulirsch-Stoer Extrapolation Cycles:
    EPS =    0.000010000000000
      PEZero:  N= 2 I= 1 D=  1.86D-03 Err=  4.60D-05
      PEZero:  N= 3 I= 2 D=  1.86D-03 Err=  3.08D-05
      PEZero:  N= 3 I= 1 D=  3.72D-03 Err=  1.84D-07
 Maximum DWI energy   std dev =  0.000001073 at pt    33
 Maximum DWI gradient std dev =  0.000341640 at pt    20
 CORRECTOR INTEGRATION CONVERGENCE:
   Recorrection delta-x convergence threshold:    0.010000
   Delta-x Convergence Met
 Point Number:   3          Path Number:   1
   CHANGE IN THE REACTION COORDINATE =    0.35737
   NET REACTION COORDINATE UP TO THIS POINT =    0.96583
  # OF POINTS ALONG THE PATH =   3
  # OF STEPS =   1

 Calculating another point on the path.
 IRC-IRC-IRC-IRC-IRC-IRC-IRC-IRC-IRC-IRC-IRC-IRC-IRC-IRC-IRC-IRC-IRC-IRC
                          Input orientation:                          
 ---------------------------------------------------------------------
 Center     Atomic      Atomic             Coordinates (Angstroms)
 Number     Number       Type             X           Y           Z
 ---------------------------------------------------------------------
      1          6           0        0.690543    0.432867   -0.138610
      2          1           0        0.317345    0.751396   -1.089958
      3          1           0        0.510139    1.027344    0.733070
      4          1           0        1.280464   -0.457380   -0.066231
      5         35           0       -1.283739   -0.804705    0.257603
      6         17           0        2.599453    1.629452   -0.521604
 ---------------------------------------------------------------------
                    Distance matrix (angstroms):
                    1          2          3          4          5
     1  C    0.000000
     2  H    1.070421   0.000000
     3  H    1.070409   1.853848   0.000000
     4  H    1.070413   1.853848   1.853831   0.000000
     5  Br   2.363548   2.607842   2.607771   2.607803   0.000000
     6  Cl   2.285265   2.510384   2.510374   2.510372   4.648813
                    6
     6  Cl   0.000000
 Symmetry turned off by external request.
 Stoichiometry    CH3BrCl(1-)
 Framework group  C1[X(CH3BrCl)]
 Deg. of freedom    12
 Full point group                 C1      NOp   1
 Rotational constants (GHZ):         145.9104737           0.9409061           0.9409060
 Standard basis: 6-311+G(d,p) (5D, 7F)
   118 basis functions,   207 primitive gaussians,   123 cartesian basis functions
    31 alpha electrons       31 beta electrons
       nuclear repulsion energy       180.1777063871 Hartrees.
 NAtoms=    6 NActive=    6 NUniq=    6 SFac= 1.00D+00 NAtFMM=   60 NAOKFM=F Big=F
 Integral buffers will be    131072 words long.
 Raffenetti 2 integral format.
 Two-electron integral symmetry is turned off.
 One-electron integrals computed using PRISM.
 NBasis=   118 RedAO= T EigKep=  1.35D-03  NBF=   118
 NBsUse=   118 1.00D-06 EigRej= -1.00D+00 NBFU=   118
 Initial guess from the checkpoint file:  "brch3cl_irc3.chk"
 B after Tr=     0.001410    0.000883   -0.000284
         Rot=    1.000000    0.000005    0.000002   -0.000001 Ang=   0.00 deg.
 ExpMin= 3.50D-02 ExpMax= 4.40D+05 ExpMxC= 1.51D+04 IAcc=3 IRadAn=         5 AccDes= 0.00D+00
 Harris functional with IExCor=  402 and IRadAn=       5 diagonalized for initial guess.
 HarFok:  IExCor=  402 AccDes= 0.00D+00 IRadAn=         5 IDoV= 1 UseB2=F ITyADJ=14
 ICtDFT=  3500011 ScaDFX=  1.000000  1.000000  1.000000  1.000000
 FoFCou: FMM=F IPFlag=           0 FMFlag=      100000 FMFlg1=           0
         NFxFlg=           0 DoJE=T BraDBF=F KetDBF=T FulRan=T
         wScrn=  0.000000 ICntrl=       500 IOpCl=  0 I1Cent=   200000004 NGrid=           0
         NMat0=    1 NMatS0=      1 NMatT0=    0 NMatD0=    1 NMtDS0=    0 NMtDT0=    0
 Symmetry not used in FoFCou.
 Keep R1 ints in memory in canonical form, NReq=28441312.
 Requested convergence on RMS density matrix=1.00D-08 within 128 cycles.
 Requested convergence on MAX density matrix=1.00D-06.
 Requested convergence on             energy=1.00D-06.
 No special actions if energy rises.
 SCF Done:  E(RB3LYP) =  -3074.38370297     A.U. after    8 cycles
            NFock=  8  Conv=0.55D-08     -V/T= 2.0014
 DoSCS=F DFT=T ScalE2(SS,OS)=  1.000000  1.000000
 Range of M.O.s used for correlation:     1   118
 NBasis=   118 NAE=    31 NBE=    31 NFC=     0 NFV=     0
 NROrb=    118 NOA=    31 NOB=    31 NVA=    87 NVB=    87

 **** Warning!!: The largest alpha MO coefficient is  0.11066150D+02

 Symmetrizing basis deriv contribution to polar:
 IMax=3 JMax=2 DiffMx= 0.00D+00
 Calling FoFJK, ICntrl=      2147 FMM=F ISym2X=0 I1Cent= 0 IOpClX= 0 NMat=1 NMatS=1 NMatT=0.
 -------------------------------------------------------------------
 Center     Atomic                   Forces (Hartrees/Bohr)
 Number     Number              X              Y              Z
 -------------------------------------------------------------------
      1        6           0.001626526    0.001017769   -0.000331587
      2        1           0.000092032    0.000059984   -0.000023910
      3        1           0.000092776    0.000061600   -0.000015108
      4        1           0.000096730    0.000054344   -0.000018689
      5       35          -0.013689019   -0.008578123    0.002753468
      6       17           0.011780955    0.007384426   -0.002364175
 -------------------------------------------------------------------
 Cartesian Forces:  Max     0.013689019 RMS     0.005116934
 IRC-IRC-IRC-IRC-IRC-IRC-IRC-IRC-IRC-IRC-IRC-IRC-IRC-IRC-IRC-IRC-IRC-IRC
 Pt  4 Step number   1 out of a maximum of  20
 Modified Bulirsch-Stoer Extrapolation Cycles:
    EPS =    0.000010000000000
      PEZero:  N= 2 I= 1 D=  1.86D-03 Err=  1.03D-04
      PEZero:  N= 3 I= 2 D=  1.86D-03 Err=  6.89D-05
      PEZero:  N= 3 I= 1 D=  3.72D-03 Err=  4.99D-07
 Maximum DWI energy   std dev =  0.000000316 at pt    31
 Maximum DWI gradient std dev =  0.000539144 at pt    59
 CORRECTOR INTEGRATION CONVERGENCE:
   Recorrection delta-x convergence threshold:    0.010000
   Delta-x Convergence Met
 Point Number:   4          Path Number:   1
   CHANGE IN THE REACTION COORDINATE =    0.35734
   NET REACTION COORDINATE UP TO THIS POINT =    1.32317
  # OF POINTS ALONG THE PATH =   4
  # OF STEPS =   1

 Calculating another point on the path.
 IRC-IRC-IRC-IRC-IRC-IRC-IRC-IRC-IRC-IRC-IRC-IRC-IRC-IRC-IRC-IRC-IRC-IRC
                          Input orientation:                          
 ---------------------------------------------------------------------
 Center     Atomic      Atomic             Coordinates (Angstroms)
 Number     Number       Type             X           Y           Z
 ---------------------------------------------------------------------
      1          6           0        0.700580    0.439145   -0.140655
      2          1           0        0.322801    0.754931   -1.091355
      3          1           0        0.515632    1.030968    0.732143
      4          1           0        1.286168   -0.454142   -0.067343
      5         35           0       -1.294499   -0.811447    0.259768
      6         17           0        2.619812    1.642213   -0.525690
 ---------------------------------------------------------------------
                    Distance matrix (angstroms):
                    1          2          3          4          5
     1  C    0.000000
     2  H    1.070639   0.000000
     3  H    1.070625   1.854327   0.000000
     4  H    1.070630   1.854328   1.854308   0.000000
     5  Br   2.388442   2.625782   2.625682   2.625739   0.000000
     6  Cl   2.297625   2.526561   2.526527   2.526538   4.686067
                    6
     6  Cl   0.000000
 Symmetry turned off by external request.
 Stoichiometry    CH3BrCl(1-)
 Framework group  C1[X(CH3BrCl)]
 Deg. of freedom    12
 Full point group                 C1      NOp   1
 Rotational constants (GHZ):         145.8351619           0.9258443           0.9258443
 Standard basis: 6-311+G(d,p) (5D, 7F)
   118 basis functions,   207 primitive gaussians,   123 cartesian basis functions
    31 alpha electrons       31 beta electrons
       nuclear repulsion energy       178.8058613281 Hartrees.
 NAtoms=    6 NActive=    6 NUniq=    6 SFac= 1.00D+00 NAtFMM=   60 NAOKFM=F Big=F
 Integral buffers will be    131072 words long.
 Raffenetti 2 integral format.
 Two-electron integral symmetry is turned off.
 One-electron integrals computed using PRISM.
 NBasis=   118 RedAO= T EigKep=  1.40D-03  NBF=   118
 NBsUse=   118 1.00D-06 EigRej= -1.00D+00 NBFU=   118
 Initial guess from the checkpoint file:  "brch3cl_irc3.chk"
 B after Tr=     0.001437    0.000900   -0.000290
         Rot=    1.000000    0.000006    0.000002   -0.000001 Ang=   0.00 deg.
 ExpMin= 3.50D-02 ExpMax= 4.40D+05 ExpMxC= 1.51D+04 IAcc=3 IRadAn=         5 AccDes= 0.00D+00
 Harris functional with IExCor=  402 and IRadAn=       5 diagonalized for initial guess.
 HarFok:  IExCor=  402 AccDes= 0.00D+00 IRadAn=         5 IDoV= 1 UseB2=F ITyADJ=14
 ICtDFT=  3500011 ScaDFX=  1.000000  1.000000  1.000000  1.000000
 FoFCou: FMM=F IPFlag=           0 FMFlag=      100000 FMFlg1=           0
         NFxFlg=           0 DoJE=T BraDBF=F KetDBF=T FulRan=T
         wScrn=  0.000000 ICntrl=       500 IOpCl=  0 I1Cent=   200000004 NGrid=           0
         NMat0=    1 NMatS0=      1 NMatT0=    0 NMatD0=    1 NMtDS0=    0 NMtDT0=    0
 Symmetry not used in FoFCou.
 Keep R1 ints in memory in canonical form, NReq=28441312.
 Requested convergence on RMS density matrix=1.00D-08 within 128 cycles.
 Requested convergence on MAX density matrix=1.00D-06.
 Requested convergence on             energy=1.00D-06.
 No special actions if energy rises.
 SCF Done:  E(RB3LYP) =  -3074.38470250     A.U. after    9 cycles
            NFock=  9  Conv=0.57D-08     -V/T= 2.0014
 DoSCS=F DFT=T ScalE2(SS,OS)=  1.000000  1.000000
 Range of M.O.s used for correlation:     1   118
 NBasis=   118 NAE=    31 NBE=    31 NFC=     0 NFV=     0
 NROrb=    118 NOA=    31 NOB=    31 NVA=    87 NVB=    87

 **** Warning!!: The largest alpha MO coefficient is  0.10919438D+02

 Symmetrizing basis deriv contribution to polar:
 IMax=3 JMax=2 DiffMx= 0.00D+00
 Calling FoFJK, ICntrl=      2147 FMM=F ISym2X=0 I1Cent= 0 IOpClX= 0 NMat=1 NMatS=1 NMatT=0.
 -------------------------------------------------------------------
 Center     Atomic                   Forces (Hartrees/Bohr)
 Number     Number              X              Y              Z
 -------------------------------------------------------------------
      1        6           0.001955788    0.001223811   -0.000398246
      2        1           0.000089232    0.000052698   -0.000013253
      3        1           0.000088114    0.000051713   -0.000022386
      4        1           0.000084469    0.000058975   -0.000018128
      5       35          -0.011503001   -0.007206873    0.002315471
      6       17           0.009285399    0.005819676   -0.001863457
 -------------------------------------------------------------------
 Cartesian Forces:  Max     0.011503001 RMS     0.004207753
 IRC-IRC-IRC-IRC-IRC-IRC-IRC-IRC-IRC-IRC-IRC-IRC-IRC-IRC-IRC-IRC-IRC-IRC
 Pt  5 Step number   1 out of a maximum of  20
 Modified Bulirsch-Stoer Extrapolation Cycles:
    EPS =    0.000010000000000
      PEZero:  N= 2 I= 1 D=  1.86D-03 Err=  2.49D-04
      PEZero:  N= 3 I= 2 D=  1.86D-03 Err=  1.67D-04
      PEZero:  N= 3 I= 1 D=  3.72D-03 Err=  1.41D-06
 Maximum DWI energy   std dev =  0.000000830 at pt    35
 Maximum DWI gradient std dev =  0.003725657 at pt    59
 CORRECTOR INTEGRATION CONVERGENCE:
   Recorrection delta-x convergence threshold:    0.010000
   Delta-x Convergence Met
 Point Number:   5          Path Number:   1
   CHANGE IN THE REACTION COORDINATE =    0.35713
   NET REACTION COORDINATE UP TO THIS POINT =    1.68030
  # OF POINTS ALONG THE PATH =   5
  # OF STEPS =   1

 Calculating another point on the path.
 IRC-IRC-IRC-IRC-IRC-IRC-IRC-IRC-IRC-IRC-IRC-IRC-IRC-IRC-IRC-IRC-IRC-IRC
                          Input orientation:                          
 ---------------------------------------------------------------------
 Center     Atomic      Atomic             Coordinates (Angstroms)
 Number     Number       Type             X           Y           Z
 ---------------------------------------------------------------------
      1          6           0        0.716795    0.449292   -0.143949
      2          1           0        0.328137    0.758415   -1.092799
      3          1           0        0.521014    1.034565    0.731277
      4          1           0        1.291808   -0.451022   -0.068436
      5         35           0       -1.305426   -0.818292    0.261968
      6         17           0        2.638437    1.653886   -0.529427
 ---------------------------------------------------------------------
                    Distance matrix (angstroms):
                    1          2          3          4          5
     1  C    0.000000
     2  H    1.070947   0.000000
     3  H    1.070931   1.854915   0.000000
     4  H    1.070938   1.854917   1.854894   0.000000
     5  Br   2.420933   2.643847   2.643712   2.643800   0.000000
     6  Cl   2.300510   2.541012   2.540947   2.540976   4.721443
                    6
     6  Cl   0.000000
 Symmetry turned off by external request.
 Stoichiometry    CH3BrCl(1-)
 Framework group  C1[X(CH3BrCl)]
 Deg. of freedom    12
 Full point group                 C1      NOp   1
 Rotational constants (GHZ):         145.7427255           0.9115646           0.9115645
 Standard basis: 6-311+G(d,p) (5D, 7F)
   118 basis functions,   207 primitive gaussians,   123 cartesian basis functions
    31 alpha electrons       31 beta electrons
       nuclear repulsion energy       177.4405232336 Hartrees.
 NAtoms=    6 NActive=    6 NUniq=    6 SFac= 1.00D+00 NAtFMM=   60 NAOKFM=F Big=F
 Integral buffers will be    131072 words long.
 Raffenetti 2 integral format.
 Two-electron integral symmetry is turned off.
 One-electron integrals computed using PRISM.
 NBasis=   118 RedAO= T EigKep=  1.45D-03  NBF=   118
 NBsUse=   118 1.00D-06 EigRej= -1.00D+00 NBFU=   118
 Initial guess from the checkpoint file:  "brch3cl_irc3.chk"
 B after Tr=     0.001481    0.000928   -0.000300
         Rot=    1.000000    0.000008    0.000003   -0.000001 Ang=   0.00 deg.
 ExpMin= 3.50D-02 ExpMax= 4.40D+05 ExpMxC= 1.51D+04 IAcc=3 IRadAn=         5 AccDes= 0.00D+00
 Harris functional with IExCor=  402 and IRadAn=       5 diagonalized for initial guess.
 HarFok:  IExCor=  402 AccDes= 0.00D+00 IRadAn=         5 IDoV= 1 UseB2=F ITyADJ=14
 ICtDFT=  3500011 ScaDFX=  1.000000  1.000000  1.000000  1.000000
 FoFCou: FMM=F IPFlag=           0 FMFlag=      100000 FMFlg1=           0
         NFxFlg=           0 DoJE=T BraDBF=F KetDBF=T FulRan=T
         wScrn=  0.000000 ICntrl=       500 IOpCl=  0 I1Cent=   200000004 NGrid=           0
         NMat0=    1 NMatS0=      1 NMatT0=    0 NMatD0=    1 NMtDS0=    0 NMtDT0=    0
 Symmetry not used in FoFCou.
 Keep R1 ints in memory in canonical form, NReq=28441312.
 Requested convergence on RMS density matrix=1.00D-08 within 128 cycles.
 Requested convergence on MAX density matrix=1.00D-06.
 Requested convergence on             energy=1.00D-06.
 No special actions if energy rises.
 SCF Done:  E(RB3LYP) =  -3074.38553109     A.U. after    9 cycles
            NFock=  9  Conv=0.45D-08     -V/T= 2.0014
 DoSCS=F DFT=T ScalE2(SS,OS)=  1.000000  1.000000
 Range of M.O.s used for correlation:     1   118
 NBasis=   118 NAE=    31 NBE=    31 NFC=     0 NFV=     0
 NROrb=    118 NOA=    31 NOB=    31 NVA=    87 NVB=    87

 **** Warning!!: The largest alpha MO coefficient is  0.10858017D+02

 Symmetrizing basis deriv contribution to polar:
 IMax=3 JMax=2 DiffMx= 0.00D+00
 G2DrvN: will do     7 centers at a time, making    1 passes.
 Calling FoFCou, ICntrl=  3107 FMM=F I1Cent=   0 AccDes= 0.00D+00.
 End of G2Drv F.D. properties file   721 does not exist.
 End of G2Drv F.D. properties file   722 does not exist.
 End of G2Drv F.D. properties file   788 does not exist.
          IDoAtm=111111
          Differentiating once with respect to nuclear coordinates.
 Keep R1 ints in memory in canonical form, NReq=28433146.
          There are    21 degrees of freedom in the 1st order CPHF.  IDoFFX=6 NUNeed=     0.
     15 vectors produced by pass  0 Test12= 1.28D-14 4.76D-09 XBig12= 1.29D-01 2.48D-01.
 AX will form    15 AO Fock derivatives at one time.
     15 vectors produced by pass  1 Test12= 1.28D-14 4.76D-09 XBig12= 1.98D-02 4.70D-02.
     15 vectors produced by pass  2 Test12= 1.28D-14 4.76D-09 XBig12= 1.61D-03 1.09D-02.
     15 vectors produced by pass  3 Test12= 1.28D-14 4.76D-09 XBig12= 9.30D-05 2.22D-03.
     15 vectors produced by pass  4 Test12= 1.28D-14 4.76D-09 XBig12= 2.51D-06 3.51D-04.
     11 vectors produced by pass  5 Test12= 1.28D-14 4.76D-09 XBig12= 8.00D-09 2.60D-05.
     10 vectors produced by pass  6 Test12= 1.28D-14 4.76D-09 XBig12= 4.69D-11 2.12D-06.
      1 vectors produced by pass  7 Test12= 1.28D-14 4.76D-09 XBig12= 1.48D-13 1.28D-07.
      1 vectors produced by pass  8 Test12= 1.28D-14 4.76D-09 XBig12= 3.04D-16 5.09D-09.
 InvSVY:  IOpt=1 It=  1 EMax= 8.88D-16
 Solved reduced A of dimension    98 with    15 vectors.
 End of Minotr F.D. properties file   721 does not exist.
 End of Minotr F.D. properties file   722 does not exist.
 End of Minotr F.D. properties file   788 does not exist.
 Calling FoFJK, ICntrl=    100147 FMM=F ISym2X=0 I1Cent= 0 IOpClX= 0 NMat=1 NMatS=1 NMatT=0.
 -------------------------------------------------------------------
 Center     Atomic                   Forces (Hartrees/Bohr)
 Number     Number              X              Y              Z
 -------------------------------------------------------------------
      1        6           0.002903134    0.001818006   -0.000588247
      2        1           0.000131688    0.000040800    0.000049655
      3        1           0.000117102    0.000020687   -0.000086265
      4        1           0.000059956    0.000131178   -0.000026461
      5       35          -0.009873923   -0.006185547    0.001988592
      6       17           0.006662044    0.004174875   -0.001337275
 -------------------------------------------------------------------
 Cartesian Forces:  Max     0.009873923 RMS     0.003459724
 IRC-IRC-IRC-IRC-IRC-IRC-IRC-IRC-IRC-IRC-IRC-IRC-IRC-IRC-IRC-IRC-IRC-IRC
 Pt  6 Step number   1 out of a maximum of  20
 Modified Bulirsch-Stoer Extrapolation Cycles:
    EPS =    0.000010000000000
      PEZero:  N= 2 I= 1 D=  1.86D-03 Err=  6.11D-04
      PEZero:  N= 3 I= 2 D=  1.86D-03 Err=  4.09D-04
      PEZero:  N= 3 I= 1 D=  3.71D-03 Err=  3.24D-06
 Maximum DWI energy   std dev =  0.000000706 at pt    33
 Maximum DWI gradient std dev =  0.011046779 at pt    71
 CORRECTOR INTEGRATION CONVERGENCE:
   Recorrection delta-x convergence threshold:    0.010000
   Delta-x Convergence Met
 Point Number:   6          Path Number:   1
   CHANGE IN THE REACTION COORDINATE =    0.35570
   NET REACTION COORDINATE UP TO THIS POINT =    2.03600
  # OF POINTS ALONG THE PATH =   6
  # OF STEPS =   1

 Calculating another point on the path.
 IRC-IRC-IRC-IRC-IRC-IRC-IRC-IRC-IRC-IRC-IRC-IRC-IRC-IRC-IRC-IRC-IRC-IRC
                          Input orientation:                          
 ---------------------------------------------------------------------
 Center     Atomic      Atomic             Coordinates (Angstroms)
 Number     Number       Type             X           Y           Z
 ---------------------------------------------------------------------
      1          6           0        0.744900    0.466897   -0.149625
      2          1           0        0.334090    0.762109   -1.094035
      3          1           0        0.526946    1.038285    0.730035
      4          1           0        1.297758   -0.447301   -0.069646
      5         35           0       -1.315841   -0.824816    0.264066
      6         17           0        2.651781    1.662246   -0.532107
 ---------------------------------------------------------------------
                    Distance matrix (angstroms):
                    1          2          3          4          5
     1  C    0.000000
     2  H    1.071367   0.000000
     3  H    1.071349   1.854912   0.000000
     4  H    1.071357   1.854913   1.854887   0.000000
     5  Br   2.467045   2.661774   2.661604   2.661725   0.000000
     6  Cl   2.282838   2.549059   2.548971   2.549008   4.749884
                    6
     6  Cl   0.000000
 Symmetry turned off by external request.
 Stoichiometry    CH3BrCl(1-)
 Framework group  C1[X(CH3BrCl)]
 Deg. of freedom    12
 Full point group                 C1      NOp   1
 Rotational constants (GHZ):         145.7434885           0.8996081           0.8996080
 Standard basis: 6-311+G(d,p) (5D, 7F)
   118 basis functions,   207 primitive gaussians,   123 cartesian basis functions
    31 alpha electrons       31 beta electrons
       nuclear repulsion energy       176.1864656351 Hartrees.
 NAtoms=    6 NActive=    6 NUniq=    6 SFac= 1.00D+00 NAtFMM=   60 NAOKFM=F Big=F
 Integral buffers will be    131072 words long.
 Raffenetti 2 integral format.
 Two-electron integral symmetry is turned off.
 One-electron integrals computed using PRISM.
 NBasis=   118 RedAO= T EigKep=  1.50D-03  NBF=   118
 NBsUse=   118 1.00D-06 EigRej= -1.00D+00 NBFU=   118
 Initial guess from the checkpoint file:  "brch3cl_irc3.chk"
 B after Tr=     0.001511    0.000947   -0.000305
         Rot=    1.000000    0.000009    0.000004   -0.000001 Ang=   0.00 deg.
 ExpMin= 3.50D-02 ExpMax= 4.40D+05 ExpMxC= 1.51D+04 IAcc=3 IRadAn=         5 AccDes= 0.00D+00
 Harris functional with IExCor=  402 and IRadAn=       5 diagonalized for initial guess.
 HarFok:  IExCor=  402 AccDes= 0.00D+00 IRadAn=         5 IDoV= 1 UseB2=F ITyADJ=14
 ICtDFT=  3500011 ScaDFX=  1.000000  1.000000  1.000000  1.000000
 FoFCou: FMM=F IPFlag=           0 FMFlag=      100000 FMFlg1=           0
         NFxFlg=           0 DoJE=T BraDBF=F KetDBF=T FulRan=T
         wScrn=  0.000000 ICntrl=       500 IOpCl=  0 I1Cent=   200000004 NGrid=           0
         NMat0=    1 NMatS0=      1 NMatT0=    0 NMatD0=    1 NMtDS0=    0 NMtDT0=    0
 Symmetry not used in FoFCou.
 Keep R1 ints in memory in canonical form, NReq=28441312.
 Requested convergence on RMS density matrix=1.00D-08 within 128 cycles.
 Requested convergence on MAX density matrix=1.00D-06.
 Requested convergence on             energy=1.00D-06.
 No special actions if energy rises.
 SCF Done:  E(RB3LYP) =  -3074.38629977     A.U. after   10 cycles
            NFock= 10  Conv=0.22D-08     -V/T= 2.0014
 DoSCS=F DFT=T ScalE2(SS,OS)=  1.000000  1.000000
 Range of M.O.s used for correlation:     1   118
 NBasis=   118 NAE=    31 NBE=    31 NFC=     0 NFV=     0
 NROrb=    118 NOA=    31 NOB=    31 NVA=    87 NVB=    87

 **** Warning!!: The largest alpha MO coefficient is  0.10987579D+02

 Symmetrizing basis deriv contribution to polar:
 IMax=3 JMax=2 DiffMx= 0.00D+00
 Calling FoFJK, ICntrl=      2147 FMM=F ISym2X=0 I1Cent= 0 IOpClX= 0 NMat=1 NMatS=1 NMatT=0.
 -------------------------------------------------------------------
 Center     Atomic                   Forces (Hartrees/Bohr)
 Number     Number              X              Y              Z
 -------------------------------------------------------------------
      1        6           0.005094084    0.003191558   -0.001026630
      2        1           0.000167829    0.000004438    0.000152206
      3        1           0.000132523   -0.000045262   -0.000178655
      4        1          -0.000006839    0.000224019   -0.000033315
      5       35          -0.009227403   -0.005780695    0.001857714
      6       17           0.003839806    0.002405942   -0.000771320
 -------------------------------------------------------------------
 Cartesian Forces:  Max     0.009227403 RMS     0.003166526
 IRC-IRC-IRC-IRC-IRC-IRC-IRC-IRC-IRC-IRC-IRC-IRC-IRC-IRC-IRC-IRC-IRC-IRC
 Pt  7 Step number   1 out of a maximum of  20
 Modified Bulirsch-Stoer Extrapolation Cycles:
    EPS =    0.000010000000000
      PEZero:  N= 2 I= 1 D=  1.85D-03 Err=  8.41D-04
      PEZero:  N= 3 I= 2 D=  1.85D-03 Err=  5.61D-04
      PEZero:  N= 3 I= 1 D=  3.69D-03 Err=  2.32D-06
 Maximum DWI energy   std dev =  0.000000245 at pt    23
 Maximum DWI gradient std dev =  0.042844323 at pt    59
 CORRECTOR INTEGRATION CONVERGENCE:
   Recorrection delta-x convergence threshold:    0.010000
   Delta-x Convergence Met
 Point Number:   7          Path Number:   1
   CHANGE IN THE REACTION COORDINATE =    0.35165
   NET REACTION COORDINATE UP TO THIS POINT =    2.38765
  # OF POINTS ALONG THE PATH =   7
  # OF STEPS =   1

 Calculating another point on the path.
 IRC-IRC-IRC-IRC-IRC-IRC-IRC-IRC-IRC-IRC-IRC-IRC-IRC-IRC-IRC-IRC-IRC-IRC
                          Input orientation:                          
 ---------------------------------------------------------------------
 Center     Atomic      Atomic             Coordinates (Angstroms)
 Number     Number       Type             X           Y           Z
 ---------------------------------------------------------------------
      1          6           0        0.783468    0.491062   -0.157385
      2          1           0        0.339257    0.765031   -1.094571
      3          1           0        0.531987    1.041084    0.728560
      4          1           0        1.302428   -0.443734   -0.070683
      5         35           0       -1.324139   -0.830015    0.265736
      6         17           0        2.656866    1.665432   -0.533130
 ---------------------------------------------------------------------
                    Distance matrix (angstroms):
                    1          2          3          4          5
     1  C    0.000000
     2  H    1.072707   0.000000
     3  H    1.072691   1.853958   0.000000
     4  H    1.072698   1.853958   1.853929   0.000000
     5  Br   2.523149   2.676097   2.675896   2.676051   0.000000
     6  Cl   2.242756   2.548971   2.548880   2.548910   4.765905
                    6
     6  Cl   0.000000
 Symmetry turned off by external request.
 Stoichiometry    CH3BrCl(1-)
 Framework group  C1[X(CH3BrCl)]
 Deg. of freedom    12
 Full point group                 C1      NOp   1
 Rotational constants (GHZ):         145.8937887           0.8918710           0.8918709
 Standard basis: 6-311+G(d,p) (5D, 7F)
   118 basis functions,   207 primitive gaussians,   123 cartesian basis functions
    31 alpha electrons       31 beta electrons
       nuclear repulsion energy       175.2626545385 Hartrees.
 NAtoms=    6 NActive=    6 NUniq=    6 SFac= 1.00D+00 NAtFMM=   60 NAOKFM=F Big=F
 Integral buffers will be    131072 words long.
 Raffenetti 2 integral format.
 Two-electron integral symmetry is turned off.
 One-electron integrals computed using PRISM.
 NBasis=   118 RedAO= T EigKep=  1.53D-03  NBF=   118
 NBsUse=   118 1.00D-06 EigRej= -1.00D+00 NBFU=   118
 Initial guess from the checkpoint file:  "brch3cl_irc3.chk"
 B after Tr=     0.001310    0.000821   -0.000264
         Rot=    1.000000    0.000008    0.000004   -0.000001 Ang=   0.00 deg.
 ExpMin= 3.50D-02 ExpMax= 4.40D+05 ExpMxC= 1.51D+04 IAcc=3 IRadAn=         5 AccDes= 0.00D+00
 Harris functional with IExCor=  402 and IRadAn=       5 diagonalized for initial guess.
 HarFok:  IExCor=  402 AccDes= 0.00D+00 IRadAn=         5 IDoV= 1 UseB2=F ITyADJ=14
 ICtDFT=  3500011 ScaDFX=  1.000000  1.000000  1.000000  1.000000
 FoFCou: FMM=F IPFlag=           0 FMFlag=      100000 FMFlg1=           0
         NFxFlg=           0 DoJE=T BraDBF=F KetDBF=T FulRan=T
         wScrn=  0.000000 ICntrl=       500 IOpCl=  0 I1Cent=   200000004 NGrid=           0
         NMat0=    1 NMatS0=      1 NMatT0=    0 NMatD0=    1 NMtDS0=    0 NMtDT0=    0
 Symmetry not used in FoFCou.
 Keep R1 ints in memory in canonical form, NReq=28441312.
 Requested convergence on RMS density matrix=1.00D-08 within 128 cycles.
 Requested convergence on MAX density matrix=1.00D-06.
 Requested convergence on             energy=1.00D-06.
 No special actions if energy rises.
 SCF Done:  E(RB3LYP) =  -3074.38725395     A.U. after   10 cycles
            NFock= 10  Conv=0.27D-08     -V/T= 2.0014
 DoSCS=F DFT=T ScalE2(SS,OS)=  1.000000  1.000000
 Range of M.O.s used for correlation:     1   118
 NBasis=   118 NAE=    31 NBE=    31 NFC=     0 NFV=     0
 NROrb=    118 NOA=    31 NOB=    31 NVA=    87 NVB=    87

 **** Warning!!: The largest alpha MO coefficient is  0.11341831D+02

 Symmetrizing basis deriv contribution to polar:
 IMax=3 JMax=2 DiffMx= 0.00D+00
 Calling FoFJK, ICntrl=      2147 FMM=F ISym2X=0 I1Cent= 0 IOpClX= 0 NMat=1 NMatS=1 NMatT=0.
 -------------------------------------------------------------------
 Center     Atomic                   Forces (Hartrees/Bohr)
 Number     Number              X              Y              Z
 -------------------------------------------------------------------
      1        6           0.008235027    0.005160976   -0.001655458
      2        1           0.000494038   -0.000113116    0.000685219
      3        1           0.000346161   -0.000324313   -0.000708887
      4        1          -0.000241809    0.000810448   -0.000097113
      5       35          -0.009774660   -0.006123453    0.001966393
      6       17           0.000941243    0.000589458   -0.000190154
 -------------------------------------------------------------------
 Cartesian Forces:  Max     0.009774660 RMS     0.003632779
 IRC-IRC-IRC-IRC-IRC-IRC-IRC-IRC-IRC-IRC-IRC-IRC-IRC-IRC-IRC-IRC-IRC-IRC
 Pt  8 Step number   1 out of a maximum of  20
 Modified Bulirsch-Stoer Extrapolation Cycles:
    EPS =    0.000010000000000
      PEZero:  N= 2 I= 1 D=  1.85D-03 Err=  6.49D-04
      PEZero:  N= 3 I= 2 D=  1.85D-03 Err=  4.33D-04
      PEZero:  N= 3 I= 1 D=  3.70D-03 Err=  8.06D-07
 Maximum DWI energy   std dev =  0.000001525 at pt    35
 Maximum DWI gradient std dev =  0.139124934 at pt    56
 CORRECTOR INTEGRATION CONVERGENCE:
   Recorrection delta-x convergence threshold:    0.010000
   Delta-x Convergence Met
 Point Number:   8          Path Number:   1
   CHANGE IN THE REACTION COORDINATE =    0.35386
   NET REACTION COORDINATE UP TO THIS POINT =    2.74150
  # OF POINTS ALONG THE PATH =   8
  # OF STEPS =   1

 Calculating another point on the path.
 IRC-IRC-IRC-IRC-IRC-IRC-IRC-IRC-IRC-IRC-IRC-IRC-IRC-IRC-IRC-IRC-IRC-IRC
                          Input orientation:                          
 ---------------------------------------------------------------------
 Center     Atomic      Atomic             Coordinates (Angstroms)
 Number     Number       Type             X           Y           Z
 ---------------------------------------------------------------------
      1          6           0        0.825481    0.517384   -0.165825
      2          1           0        0.346806    0.768404   -1.093632
      3          1           0        0.539040    1.043800    0.725116
      4          1           0        1.307660   -0.437440   -0.072185
      5         35           0       -1.330619   -0.834074    0.267039
      6         17           0        2.656682    1.665317   -0.533095
 ---------------------------------------------------------------------
                    Distance matrix (angstroms):
                    1          2          3          4          5
     1  C    0.000000
     2  H    1.073763   0.000000
     3  H    1.073750   1.849498   0.000000
     4  H    1.073757   1.849501   1.849469   0.000000
     5  Br   2.581196   2.689446   2.689213   2.689406   0.000000
     6  Cl   2.192245   2.540508   2.540431   2.540450   4.773441
                    6
     6  Cl   0.000000
 Symmetry turned off by external request.
 Stoichiometry    CH3BrCl(1-)
 Framework group  C1[X(CH3BrCl)]
 Deg. of freedom    12
 Full point group                 C1      NOp   1
 Rotational constants (GHZ):         146.5980620           0.8870304           0.8870302
 Standard basis: 6-311+G(d,p) (5D, 7F)
   118 basis functions,   207 primitive gaussians,   123 cartesian basis functions
    31 alpha electrons       31 beta electrons
       nuclear repulsion energy       174.6479667519 Hartrees.
 NAtoms=    6 NActive=    6 NUniq=    6 SFac= 1.00D+00 NAtFMM=   60 NAOKFM=F Big=F
 Integral buffers will be    131072 words long.
 Raffenetti 2 integral format.
 Two-electron integral symmetry is turned off.
 One-electron integrals computed using PRISM.
 NBasis=   118 RedAO= T EigKep=  1.50D-03  NBF=   118
 NBsUse=   118 1.00D-06 EigRej= -1.00D+00 NBFU=   118
 Initial guess from the checkpoint file:  "brch3cl_irc3.chk"
 B after Tr=     0.001301    0.000814   -0.000262
         Rot=    1.000000    0.000006    0.000003   -0.000001 Ang=   0.00 deg.
 ExpMin= 3.50D-02 ExpMax= 4.40D+05 ExpMxC= 1.51D+04 IAcc=3 IRadAn=         5 AccDes= 0.00D+00
 Harris functional with IExCor=  402 and IRadAn=       5 diagonalized for initial guess.
 HarFok:  IExCor=  402 AccDes= 0.00D+00 IRadAn=         5 IDoV= 1 UseB2=F ITyADJ=14
 ICtDFT=  3500011 ScaDFX=  1.000000  1.000000  1.000000  1.000000
 FoFCou: FMM=F IPFlag=           0 FMFlag=      100000 FMFlg1=           0
         NFxFlg=           0 DoJE=T BraDBF=F KetDBF=T FulRan=T
         wScrn=  0.000000 ICntrl=       500 IOpCl=  0 I1Cent=   200000004 NGrid=           0
         NMat0=    1 NMatS0=      1 NMatT0=    0 NMatD0=    1 NMtDS0=    0 NMtDT0=    0
 Symmetry not used in FoFCou.
 Keep R1 ints in memory in canonical form, NReq=28441312.
 Requested convergence on RMS density matrix=1.00D-08 within 128 cycles.
 Requested convergence on MAX density matrix=1.00D-06.
 Requested convergence on             energy=1.00D-06.
 No special actions if energy rises.
 SCF Done:  E(RB3LYP) =  -3074.38858277     A.U. after   10 cycles
            NFock= 10  Conv=0.33D-08     -V/T= 2.0014
 DoSCS=F DFT=T ScalE2(SS,OS)=  1.000000  1.000000
 Range of M.O.s used for correlation:     1   118
 NBasis=   118 NAE=    31 NBE=    31 NFC=     0 NFV=     0
 NROrb=    118 NOA=    31 NOB=    31 NVA=    87 NVB=    87

 **** Warning!!: The largest alpha MO coefficient is  0.11842861D+02

 Symmetrizing basis deriv contribution to polar:
 IMax=3 JMax=2 DiffMx= 0.00D+00
 G2DrvN: will do     7 centers at a time, making    1 passes.
 Calling FoFCou, ICntrl=  3107 FMM=F I1Cent=   0 AccDes= 0.00D+00.
 End of G2Drv F.D. properties file   721 does not exist.
 End of G2Drv F.D. properties file   722 does not exist.
 End of G2Drv F.D. properties file   788 does not exist.
          IDoAtm=111111
          Differentiating once with respect to nuclear coordinates.
 Keep R1 ints in memory in canonical form, NReq=28433153.
          There are    21 degrees of freedom in the 1st order CPHF.  IDoFFX=6 NUNeed=     0.
     15 vectors produced by pass  0 Test12= 1.28D-14 4.76D-09 XBig12= 1.25D-01 2.41D-01.
 AX will form    15 AO Fock derivatives at one time.
     15 vectors produced by pass  1 Test12= 1.28D-14 4.76D-09 XBig12= 1.80D-02 4.30D-02.
     15 vectors produced by pass  2 Test12= 1.28D-14 4.76D-09 XBig12= 1.41D-03 1.06D-02.
     15 vectors produced by pass  3 Test12= 1.28D-14 4.76D-09 XBig12= 7.51D-05 2.22D-03.
     15 vectors produced by pass  4 Test12= 1.28D-14 4.76D-09 XBig12= 1.84D-06 3.38D-04.
     12 vectors produced by pass  5 Test12= 1.28D-14 4.76D-09 XBig12= 6.25D-09 3.11D-05.
     10 vectors produced by pass  6 Test12= 1.28D-14 4.76D-09 XBig12= 4.42D-11 2.57D-06.
      1 vectors produced by pass  7 Test12= 1.28D-14 4.76D-09 XBig12= 1.66D-13 1.53D-07.
      1 vectors produced by pass  8 Test12= 1.28D-14 4.76D-09 XBig12= 4.96D-16 5.63D-09.
 InvSVY:  IOpt=1 It=  1 EMax= 5.55D-16
 Solved reduced A of dimension    99 with    15 vectors.
 End of Minotr F.D. properties file   721 does not exist.
 End of Minotr F.D. properties file   722 does not exist.
 End of Minotr F.D. properties file   788 does not exist.
 Calling FoFJK, ICntrl=    100147 FMM=F ISym2X=0 I1Cent= 0 IOpClX= 0 NMat=1 NMatS=1 NMatT=0.
 -------------------------------------------------------------------
 Center     Atomic                   Forces (Hartrees/Bohr)
 Number     Number              X              Y              Z
 -------------------------------------------------------------------
      1        6           0.011405426    0.007147968   -0.002289406
      2        1           0.000621942   -0.000139258    0.000857128
      3        1           0.000437363   -0.000403952   -0.000888527
      4        1          -0.000299668    0.001017259   -0.000122255
      5       35          -0.010609037   -0.006646376    0.002132743
      6       17          -0.001556026   -0.000975641    0.000310317
 -------------------------------------------------------------------
 Cartesian Forces:  Max     0.011405426 RMS     0.004438386
 IRC-IRC-IRC-IRC-IRC-IRC-IRC-IRC-IRC-IRC-IRC-IRC-IRC-IRC-IRC-IRC-IRC-IRC
 Pt  9 Step number   1 out of a maximum of  20
 Modified Bulirsch-Stoer Extrapolation Cycles:
    EPS =    0.000010000000000
      PEZero:  N= 2 I= 1 D=  1.86D-03 Err=  3.20D-04
      PEZero:  N= 3 I= 2 D=  1.86D-03 Err=  2.13D-04
      PEZero:  N= 3 I= 1 D=  3.72D-03 Err=  5.32D-07
 Maximum DWI energy   std dev =  0.000003060 at pt    15
 Maximum DWI gradient std dev =  0.081163850 at pt    65
 CORRECTOR INTEGRATION CONVERGENCE:
   Recorrection delta-x convergence threshold:    0.010000
   Delta-x Convergence Met
 Point Number:   9          Path Number:   1
   CHANGE IN THE REACTION COORDINATE =    0.35651
   NET REACTION COORDINATE UP TO THIS POINT =    3.09801
  # OF POINTS ALONG THE PATH =   9
  # OF STEPS =   1

 Calculating another point on the path.
 IRC-IRC-IRC-IRC-IRC-IRC-IRC-IRC-IRC-IRC-IRC-IRC-IRC-IRC-IRC-IRC-IRC-IRC
                          Input orientation:                          
 ---------------------------------------------------------------------
 Center     Atomic      Atomic             Coordinates (Angstroms)
 Number     Number       Type             X           Y           Z
 ---------------------------------------------------------------------
      1          6           0        0.868287    0.544209   -0.174417
      2          1           0        0.356081    0.771699   -1.090856
      3          1           0        0.547421    1.045847    0.719643
      4          1           0        1.312572   -0.428669   -0.074025
      5         35           0       -1.336115   -0.837518    0.268144
      6         17           0        2.653700    1.663447   -0.532500
 ---------------------------------------------------------------------
                    Distance matrix (angstroms):
                    1          2          3          4          5
     1  C    0.000000
     2  H    1.074228   0.000000
     3  H    1.074216   1.841107   0.000000
     4  H    1.074225   1.841114   1.841076   0.000000
     5  Br   2.639018   2.701848   2.701596   2.701810   0.000000
     6  Cl   2.137431   2.527059   2.526994   2.527008   4.776450
                    6
[...]
     1  C    0.000000
     2  H    1.081992   0.000000
     3  H    1.081993   1.786130   0.000000
     4  H    1.081992   1.786127   1.786118   0.000000
     5  Br   3.162223   3.016388   3.016533   3.016320   0.000000
     6  Cl   1.857935   2.416567   2.416561   2.416566   5.020158
                    6
     6  Cl   0.000000
 Symmetry turned off by external request.
 Stoichiometry    CH3BrCl(1-)
 Framework group  C1[X(CH3BrCl)]
 Deg. of freedom    12
 Full point group                 C1      NOp   1
 Rotational constants (GHZ):         157.1840066           0.7839677           0.7839676
 Standard basis: 6-311+G(d,p) (5D, 7F)
   118 basis functions,   207 primitive gaussians,   123 cartesian basis functions
    31 alpha electrons       31 beta electrons
       nuclear repulsion energy       166.1935490053 Hartrees.
 NAtoms=    6 NActive=    6 NUniq=    6 SFac= 1.00D+00 NAtFMM=   60 NAOKFM=F Big=F
 Integral buffers will be    131072 words long.
 Raffenetti 2 integral format.
 Two-electron integral symmetry is turned off.
 One-electron integrals computed using PRISM.
 NBasis=   118 RedAO= T EigKep=  8.13D-04  NBF=   118
 NBsUse=   118 1.00D-06 EigRej= -1.00D+00 NBFU=   118
 Initial guess from the checkpoint file:  "brch3cl_irc3.chk"
 B after Tr=     0.002053    0.001288   -0.000409
         Rot=    1.000000   -0.000010   -0.000006    0.000003 Ang=  -0.00 deg.
 ExpMin= 3.50D-02 ExpMax= 4.40D+05 ExpMxC= 1.51D+04 IAcc=3 IRadAn=         5 AccDes= 0.00D+00
 Harris functional with IExCor=  402 and IRadAn=       5 diagonalized for initial guess.
 HarFok:  IExCor=  402 AccDes= 0.00D+00 IRadAn=         5 IDoV= 1 UseB2=F ITyADJ=14
 ICtDFT=  3500011 ScaDFX=  1.000000  1.000000  1.000000  1.000000
 FoFCou: FMM=F IPFlag=           0 FMFlag=      100000 FMFlg1=           0
         NFxFlg=           0 DoJE=T BraDBF=F KetDBF=T FulRan=T
         wScrn=  0.000000 ICntrl=       500 IOpCl=  0 I1Cent=   200000004 NGrid=           0
         NMat0=    1 NMatS0=      1 NMatT0=    0 NMatD0=    1 NMtDS0=    0 NMtDT0=    0
 Symmetry not used in FoFCou.
 Keep R1 ints in memory in canonical form, NReq=28441312.
 Requested convergence on RMS density matrix=1.00D-08 within 128 cycles.
 Requested convergence on MAX density matrix=1.00D-06.
 Requested convergence on             energy=1.00D-06.
 No special actions if energy rises.
 SCF Done:  E(RB3LYP) =  -3074.40236488     A.U. after    8 cycles
            NFock=  8  Conv=0.99D-08     -V/T= 2.0014
 DoSCS=F DFT=T ScalE2(SS,OS)=  1.000000  1.000000
 Range of M.O.s used for correlation:     1   118
 NBasis=   118 NAE=    31 NBE=    31 NFC=     0 NFV=     0
 NROrb=    118 NOA=    31 NOB=    31 NVA=    87 NVB=    87

 **** Warning!!: The largest alpha MO coefficient is  0.15463712D+02

 Symmetrizing basis deriv contribution to polar:
 IMax=3 JMax=2 DiffMx= 0.00D+00
 Calling FoFJK, ICntrl=      2147 FMM=F ISym2X=0 I1Cent= 0 IOpClX= 0 NMat=1 NMatS=1 NMatT=0.
 -------------------------------------------------------------------
 Center     Atomic                   Forces (Hartrees/Bohr)
 Number     Number              X              Y              Z
 -------------------------------------------------------------------
      1        6           0.000846037    0.000530813   -0.000167043
      2        1           0.000074995    0.000046291   -0.000012236
      3        1           0.000074941    0.000045688   -0.000016265
      4        1           0.000073033    0.000048603   -0.000015254
      5       35          -0.003458344   -0.002168011    0.000692097
      6       17           0.002389338    0.001496616   -0.000481300
 -------------------------------------------------------------------
 Cartesian Forces:  Max     0.003458344 RMS     0.001210351
 IRC-IRC-IRC-IRC-IRC-IRC-IRC-IRC-IRC-IRC-IRC-IRC-IRC-IRC-IRC-IRC-IRC-IRC
 Pt 39 Step number   1 out of a maximum of  20
 Modified Bulirsch-Stoer Extrapolation Cycles:
    EPS =    0.000010000000000
      PEZero:  N= 2 I= 1 D=  1.86D-03 Err=  8.59D-02
      PEZero:  N= 3 I= 2 D=  1.86D-03 Err=  4.71D-02
      PEZero:  N= 3 I= 1 D=  3.72D-03 Err=  1.51D-02
      PEZero:  N= 4 I= 3 D=  9.31D-04 Err=  1.65D-06
      PEZero:  N= 4 I= 2 D=  2.79D-03 Err=  4.71D-02
 Maximum DWI energy   std dev =  0.000000137 at pt    16
 Maximum DWI gradient std dev =  0.005374064 at pt    59
 CORRECTOR INTEGRATION CONVERGENCE:
   Recorrection delta-x convergence threshold:    0.010000
   Delta-x Convergence Met
 Point Number:  19          Path Number:   2
   CHANGE IN THE REACTION COORDINATE =    0.35738
   NET REACTION COORDINATE UP TO THIS POINT =    6.74507
  # OF POINTS ALONG THE PATH =  39
  # OF STEPS =   1

 Calculating another point on the path.
 IRC-IRC-IRC-IRC-IRC-IRC-IRC-IRC-IRC-IRC-IRC-IRC-IRC-IRC-IRC-IRC-IRC-IRC
                          Input orientation:                          
 ---------------------------------------------------------------------
 Center     Atomic      Atomic             Coordinates (Angstroms)
 Number     Number       Type             X           Y           Z
 ---------------------------------------------------------------------
      1          6           0        1.220548    0.765231   -0.244775
      2          1           0        0.574509    0.892690   -1.103579
      3          1           0        0.760688    1.158416    0.652497
      4          1           0        1.502352   -0.271881   -0.117720
      5         35           0       -1.449949   -0.908898    0.290951
      6         17           0        2.771846    1.737465   -0.556274
 ---------------------------------------------------------------------
                    Distance matrix (angstroms):
                    1          2          3          4          5
     1  C    0.000000
     2  H    1.082200   0.000000
     3  H    1.082202   1.785798   0.000000
     4  H    1.082200   1.785788   1.785791   0.000000
     5  Br   3.197071   3.047764   3.048183   3.047767   0.000000
     6  Cl   1.857095   2.416915   2.416854   2.416903   5.054165
                    6
     6  Cl   0.000000
 Symmetry turned off by external request.
 Stoichiometry    CH3BrCl(1-)
 Framework group  C1[X(CH3BrCl)]
 Deg. of freedom    12
 Full point group                 C1      NOp   1
 Rotational constants (GHZ):         157.2425412           0.7728096           0.7728096
 Standard basis: 6-311+G(d,p) (5D, 7F)
   118 basis functions,   207 primitive gaussians,   123 cartesian basis functions
    31 alpha electrons       31 beta electrons
       nuclear repulsion energy       165.2082833850 Hartrees.
 NAtoms=    6 NActive=    6 NUniq=    6 SFac= 1.00D+00 NAtFMM=   60 NAOKFM=F Big=F
 Integral buffers will be    131072 words long.
 Raffenetti 2 integral format.
 Two-electron integral symmetry is turned off.
 One-electron integrals computed using PRISM.
 NBasis=   118 RedAO= T EigKep=  8.18D-04  NBF=   118
 NBsUse=   118 1.00D-06 EigRej= -1.00D+00 NBFU=   118
 Initial guess from the checkpoint file:  "brch3cl_irc3.chk"
 B after Tr=     0.002051    0.001289   -0.000404
         Rot=    1.000000   -0.000045   -0.000027    0.000009 Ang=  -0.01 deg.
 ExpMin= 3.50D-02 ExpMax= 4.40D+05 ExpMxC= 1.51D+04 IAcc=3 IRadAn=         5 AccDes= 0.00D+00
 Harris functional with IExCor=  402 and IRadAn=       5 diagonalized for initial guess.
 HarFok:  IExCor=  402 AccDes= 0.00D+00 IRadAn=         5 IDoV= 1 UseB2=F ITyADJ=14
 ICtDFT=  3500011 ScaDFX=  1.000000  1.000000  1.000000  1.000000
 FoFCou: FMM=F IPFlag=           0 FMFlag=      100000 FMFlg1=           0
         NFxFlg=           0 DoJE=T BraDBF=F KetDBF=T FulRan=T
         wScrn=  0.000000 ICntrl=       500 IOpCl=  0 I1Cent=   200000004 NGrid=           0
         NMat0=    1 NMatS0=      1 NMatT0=    0 NMatD0=    1 NMtDS0=    0 NMtDT0=    0
 Symmetry not used in FoFCou.
 Keep R1 ints in memory in canonical form, NReq=28441312.
 Requested convergence on RMS density matrix=1.00D-08 within 128 cycles.
 Requested convergence on MAX density matrix=1.00D-06.
 Requested convergence on             energy=1.00D-06.
 No special actions if energy rises.
 SCF Done:  E(RB3LYP) =  -3074.40260488     A.U. after    8 cycles
            NFock=  8  Conv=0.90D-08     -V/T= 2.0014
 DoSCS=F DFT=T ScalE2(SS,OS)=  1.000000  1.000000
 Range of M.O.s used for correlation:     1   118
 NBasis=   118 NAE=    31 NBE=    31 NFC=     0 NFV=     0
 NROrb=    118 NOA=    31 NOB=    31 NVA=    87 NVB=    87

 **** Warning!!: The largest alpha MO coefficient is  0.15343211D+02

 Symmetrizing basis deriv contribution to polar:
 IMax=3 JMax=2 DiffMx= 0.00D+00
 Calling FoFJK, ICntrl=      2147 FMM=F ISym2X=0 I1Cent= 0 IOpClX= 0 NMat=1 NMatS=1 NMatT=0.
 -------------------------------------------------------------------
 Center     Atomic                   Forces (Hartrees/Bohr)
 Number     Number              X              Y              Z
 -------------------------------------------------------------------
      1        6           0.000664088    0.000418184   -0.000127788
      2        1           0.000068362    0.000042116   -0.000009290
      3        1           0.000067053    0.000039853   -0.000015490
      4        1           0.000065164    0.000045342   -0.000014160
      5       35          -0.002761175   -0.001732189    0.000551050
      6       17           0.001896509    0.001186695   -0.000384321
 -------------------------------------------------------------------
 Cartesian Forces:  Max     0.002761175 RMS     0.000964149
 IRC-IRC-IRC-IRC-IRC-IRC-IRC-IRC-IRC-IRC-IRC-IRC-IRC-IRC-IRC-IRC-IRC-IRC
 Pt 40 Step number   1 out of a maximum of  20
 Modified Bulirsch-Stoer Extrapolation Cycles:
    EPS =    0.000010000000000
      PEZero:  N= 2 I= 1 D=  1.86D-03 Err=  6.83D-02
      PEZero:  N= 3 I= 2 D=  1.86D-03 Err=  9.69D-02
      PEZero:  N= 3 I= 1 D=  3.72D-03 Err=  7.71D-02
      PEZero:  N= 4 I= 3 D=  9.31D-04 Err=  3.21D-03
      PEZero:  N= 4 I= 2 D=  2.79D-03 Err=  9.27D-02
      PEZero:  N= 5 I= 4 D=  9.31D-04 Err=  1.03D-06
      PEZero:  N= 5 I= 3 D=  1.86D-03 Err=  3.21D-03
 Maximum DWI energy   std dev =  0.000000352 at pt    63
 Maximum DWI gradient std dev =  0.012331890 at pt    79
 CORRECTOR INTEGRATION CONVERGENCE:
   Recorrection delta-x convergence threshold:    0.010000
   Delta-x Convergence Met
 Point Number:  20          Path Number:   2
   CHANGE IN THE REACTION COORDINATE =    0.35739
   NET REACTION COORDINATE UP TO THIS POINT =    7.10246
  # OF POINTS ALONG THE PATH =  40
  # OF STEPS =   1

 Maximum number of steps reached.
 Calculation of REVERSE path complete.
 Reaction path calculation complete.
 
 Energies reported relative to the TS energy of       -3074.378550
 --------------------------------------------------------------------------
    Summary of reaction path following
 --------------------------------------------------------------------------
                        Energy    RxCoord
   1                   -0.02405  -7.10246
   2                   -0.02381  -6.74507
   3                   -0.02352  -6.38769
   4                   -0.02316  -6.03031
   5                   -0.02273  -5.67293
   6                   -0.02222  -5.31555
   7                   -0.02163  -4.95817
   8                   -0.02093  -4.60079
   9                   -0.02014  -4.24341
  10                   -0.01922  -3.88608
  11                   -0.01817  -3.52901
  12                   -0.01695  -3.17274
  13                   -0.01547  -2.81649
  14                   -0.01366  -2.45945
  15                   -0.01159  -2.10213
  16                   -0.00940  -1.74490
  17                   -0.00723  -1.38791
  18                   -0.00516  -1.03123
  19                   -0.00318  -0.67466
  20                   -0.00121  -0.31841
  21                    0.00000   0.00000
  22                   -0.00085   0.25119
  23                   -0.00252   0.60846
  24                   -0.00395   0.96583
  25                   -0.00515   1.32317
  26                   -0.00615   1.68030
  27                   -0.00698   2.03600
  28                   -0.00774   2.38765
  29                   -0.00870   2.74150
  30                   -0.01003   3.09801
  31                   -0.01174   3.45517
  32                   -0.01372   3.81242
  33                   -0.01579   4.16974
  34                   -0.01775   4.52702
  35                   -0.01935   4.88379
  36                   -0.02044   5.23710
  37                   -0.02122   5.59118
  38                   -0.02187   5.94837
  39                   -0.02243   6.30575
  40                   -0.02291   6.66313
  41                   -0.02331   7.02051
 --------------------------------------------------------------------------
 
 Total number of points:                   40
 Total number of gradient calculations:    49
 Total number of Hessian calculations:     13
 IRC-IRC-IRC-IRC-IRC-IRC-IRC-IRC-IRC-IRC-IRC-IRC-IRC-IRC-IRC-IRC-IRC-IRC
                          Input orientation:                          
 ---------------------------------------------------------------------
 Center     Atomic      Atomic             Coordinates (Angstroms)
 Number     Number       Type             X           Y           Z
 ---------------------------------------------------------------------
      1          6           0        1.220548    0.765231   -0.244775
      2          1           0        0.574509    0.892690   -1.103579
      3          1           0        0.760688    1.158416    0.652497
      4          1           0        1.502352   -0.271881   -0.117720
      5         35           0       -1.449949   -0.908898    0.290951
      6         17           0        2.771846    1.737465   -0.556274
 ---------------------------------------------------------------------
                    Distance matrix (angstroms):
                    1          2          3          4          5
     1  C    0.000000
     2  H    1.082200   0.000000
     3  H    1.082202   1.785798   0.000000
     4  H    1.082200   1.785788   1.785791   0.000000
     5  Br   3.197071   3.047764   3.048183   3.047767   0.000000
     6  Cl   1.857095   2.416915   2.416854   2.416903   5.054165
                    6
     6  Cl   0.000000
 Symmetry turned off by external request.
 Stoichiometry    CH3BrCl(1-)
 Framework group  C1[X(CH3BrCl)]
 Deg. of freedom    12
 Full point group                 C1      NOp   1
 Rotational constants (GHZ):         157.2425412           0.7728096           0.7728096

 **********************************************************************

            Population analysis using the SCF Density.

 **********************************************************************

 Alpha  occ. eigenvalues -- -482.55453-101.41324 -62.20752 -56.02533 -56.02526
 Alpha  occ. eigenvalues --  -56.02526 -10.08607  -9.32742  -8.41621  -7.09120
 Alpha  occ. eigenvalues --   -7.08263  -7.08263  -6.23927  -6.23893  -6.23893
 Alpha  occ. eigenvalues --   -2.35165  -2.35154  -2.35154  -2.35126  -2.35126
 Alpha  occ. eigenvalues --   -0.71261  -0.54534  -0.48770  -0.30968  -0.30968
 Alpha  occ. eigenvalues --   -0.27530  -0.17836  -0.17836  -0.05320  -0.05182
 Alpha  occ. eigenvalues --   -0.05182
 Alpha virt. eigenvalues --    0.11294   0.13194   0.16497   0.16497   0.17497
 Alpha virt. eigenvalues --    0.18490   0.19509   0.19509   0.21668   0.22133
 Alpha virt. eigenvalues --    0.22133   0.27508   0.27509   0.27887   0.32211
 Alpha virt. eigenvalues --    0.38495   0.52556   0.52557   0.54924   0.58277
 Alpha virt. eigenvalues --    0.58277   0.60831   0.61507   0.61508   0.63826
 Alpha virt. eigenvalues --    0.71270   0.71270   0.77152   0.81418   0.87885
 Alpha virt. eigenvalues --    0.87885   0.88959   0.88960   0.94842   0.95716
 Alpha virt. eigenvalues --    0.95717   1.00755   1.00755   1.02591   1.06756
 Alpha virt. eigenvalues --    1.25927   1.25928   1.26110   1.56727   1.66472
 Alpha virt. eigenvalues --    1.66473   1.84535   1.84536   1.86422   2.09240
 Alpha virt. eigenvalues --    2.21550   2.21553   2.25977   2.25978   2.27937
 Alpha virt. eigenvalues --    2.44853   2.44854   2.55323   2.56456   2.61647
 Alpha virt. eigenvalues --    2.61648   2.65997   2.65998   3.05977   3.28729
 Alpha virt. eigenvalues --    3.86241   3.86241   4.39641   4.39642   4.40359
 Alpha virt. eigenvalues --    4.40361   4.49657   6.74667   7.80066   7.80075
 Alpha virt. eigenvalues --    7.85342   9.83595  24.02799  25.96129  25.96130
 Alpha virt. eigenvalues --   26.45281  48.06231 215.82134 290.00900 290.00900
 Alpha virt. eigenvalues --  290.057601020.81584
          Condensed to atoms (all electrons):
               1          2          3          4          5          6
     1  C    5.432118   0.403926   0.403928   0.403926  -0.026529   0.015934
     2  H    0.403926   0.504004  -0.020297  -0.020296  -0.006328  -0.058606
     3  H    0.403928  -0.020297   0.504063  -0.020298  -0.006328  -0.058631
     4  H    0.403926  -0.020296  -0.020298   0.504006  -0.006329  -0.058607
     5  Br  -0.026529  -0.006328  -0.006328  -0.006329  35.924428   0.045787
     6  Cl   0.015934  -0.058606  -0.058631  -0.058607   0.045787  17.148877
 Mulliken charges:
               1
     1  C   -0.633303
     2  H    0.197597
     3  H    0.197562
     4  H    0.197597
     5  Br  -0.924700
     6  Cl  -0.034754
 Sum of Mulliken charges =  -1.00000
 Mulliken charges with hydrogens summed into heavy atoms:
               1
     1  C   -0.040546
     5  Br  -0.924700
     6  Cl  -0.034754
 APT charges:
               1
     1  C   -0.744982
     2  H    0.298230
     3  H    0.298342
     4  H    0.298233
     5  Br  -0.946092
     6  Cl  -0.203730
 Sum of APT charges =  -1.00000
 APT charges with hydrogens summed into heavy atoms:
               1
     1  C    0.149822
     5  Br  -0.946092
     6  Cl  -0.203730
 Electronic spatial extent (au):  <R**2>=           1237.9267
 Charge=             -1.0000 electrons
 Dipole moment (field-independent basis, Debye):
    X=              3.4150    Y=              2.1409    Z=             -0.6850  Tot=              4.0883
 Quadrupole moment (field-independent basis, Debye-Ang):
   XX=            -65.8573   YY=            -52.8715   ZZ=            -45.3285
   XY=            -13.4080   XZ=              4.2929   YZ=              2.6908
 Traceless Quadrupole moment (field-independent basis, Debye-Ang):
   XX=            -11.1715   YY=              1.8143   ZZ=              9.3572
   XY=            -13.4080   XZ=              4.2929   YZ=              2.6908
 Octapole moment (field-independent basis, Debye-Ang**2):
  XXX=            -53.7333  YYY=            -27.4155  ZZZ=              7.1656  XYY=            -18.6648
  XXY=            -18.9875  XXZ=              5.9222  XZZ=            -13.1767  YZZ=             -7.2393
  YYZ=              4.0841  XYZ=              2.2356
 Hexadecapole moment (field-independent basis, Debye-Ang**3):
 XXXX=          -1165.9196 YYYY=           -486.5445 ZZZZ=           -116.9722 XXXY=           -367.5437
 XXXZ=            117.2163 YYYX=           -336.0500 YYYZ=             68.0385 ZZZX=            102.0223
 ZZZY=             63.3701 XXYY=           -291.0916 XXZZ=           -204.5749 YYZZ=            -98.8446
 XXYZ=             31.2702 YYXZ=             40.2818 ZZXY=           -107.0834
 N-N= 1.652082833850D+02 E-N=-7.683715282488D+03  KE= 3.070020868671D+03
  Exact polarizability:   0.000   0.000   0.000   0.000   0.000   0.000
 Approx polarizability:  97.064  23.809  74.005  -7.623  -4.778  60.611

 This type of calculation cannot be archived.


 A HARD FALL SHOULD MEAN A HIGH BOUNCE 
 IF ONE IS MADE OF THE RIGHT MATERIAL.

                -- THE CHEMIST ANALYST, MARCH 1950
 Job cpu time:       0 days  0 hours 39 minutes 22.3 seconds.
 Elapsed time:       0 days  0 hours 10 minutes 15.1 seconds.
 File lengths (MBytes):  RWF=     18 Int=      0 D2E=      0 Chk=      3 Scr=      1
 Normal termination of Gaussian 16 at Wed Nov 17 15:54:54 2021.
