 Entering Gaussian System, Link 0=g16
 Input=brch3cl.gjf
 Output=brch3cl.log
 Initial command:
 /home/apps/g16/l1.exe "./Gau-386776.inp" -scrdir="./"
 Entering Link 1 = /home/apps/g16/l1.exe PID=    386777.
  
 Copyright (c) 1988-2017, Gaussian, Inc.  All Rights Reserved.
  
 This is part of the Gaussian(R) 16 program.  It is based on
 the Gaussian(R) 09 system (copyright 2009, Gaussian, Inc.),
 the Gaussian(R) 03 system (copyright 2003, Gaussian, Inc.),
 the Gaussian(R) 98 system (copyright 1998, Gaussian, Inc.),
 the Gaussian(R) 94 system (copyright 1995, Gaussian, Inc.),
 the Gaussian 92(TM) system (copyright 1992, Gaussian, Inc.),
 the Gaussian 90(TM) system (copyright 1990, Gaussian, Inc.),
 the Gaussian 88(TM) system (copyright 1988, Gaussian, Inc.),
 the Gaussian 86(TM) system (copyright 1986, Carnegie Mellon
 University), and the Gaussian 82(TM) system (copyright 1983,
 Carnegie Mellon University). Gaussian is a federally registered
 trademark of Gaussian, Inc.
  
 This software contains proprietary and confidential information,
 including trade secrets, belonging to Gaussian, Inc.
  
 This software is provided under written license and may be
 used, copied, transmitted, or stored only in accord with that
 written license.
  
 The following legend is applicable only to US Government
 contracts under FAR:
  
                    RESTRICTED RIGHTS LEGEND
  
 Use, reproduction and disclosure by the US Government is
 subject to restrictions as set forth in subparagraphs (a)
 and (c) of the Commercial Computer Software - Restricted
 Rights clause in FAR 52.227-19.
  
 Gaussian, Inc.
 340 Quinnipiac St., Bldg. 40, Wallingford CT 06492
  
  
 ---------------------------------------------------------------
 Warning -- This program may not be used in any manner that
 competes with the business of Gaussian, Inc. or will provide
 assistance to any competitor of Gaussian, Inc.  The licensee
 of this program is prohibited from giving any competitor of
 Gaussian, Inc. access to this program.  By using this program,
 the user acknowledges that Gaussian, Inc. is engaged in the
 business of creating and licensing software in the field of
 computational chemistry and represents and warrants to the
 licensee that it is not a competitor of Gaussian, Inc. and that
 it will not use this program in any manner prohibited above.
 ---------------------------------------------------------------
  

 Cite this work as:
 Gaussian 16, Revision B.01,
 M. J. Frisch, G. W. Trucks, H. B. Schlegel, G. E. Scuseria, 
 M. A. Robb, J. R. Cheeseman, G. Scalmani, V. Barone, 
 G. A. Petersson, H. Nakatsuji, X. Li, M. Caricato, A. V. Marenich, 
 J. Bloino, B. G. Janesko, R. Gomperts, B. Mennucci, H. P. Hratchian, 
 J. V. Ortiz, A. F. Izmaylov, J. L. Sonnenberg, D. Williams-Young, 
 F. Ding, F. Lipparini, F. Egidi, J. Goings, B. Peng, A. Petrone, 
 T. Henderson, D. Ranasinghe, V. G. Zakrzewski, J. Gao, N. Rega, 
 G. Zheng, W. Liang, M. Hada, M. Ehara, K. Toyota, R. Fukuda, 
 J. Hasegawa, M. Ishida, T. Nakajima, Y. Honda, O. Kitao, H. Nakai, 
 T. Vreven, K. Throssell, J. A. Montgomery, Jr., J. E. Peralta, 
 F. Ogliaro, M. J. Bearpark, J. J. Heyd, E. N. Brothers, K. N. Kudin, 
 V. N. Staroverov, T. A. Keith, R. Kobayashi, J. Normand, 
 K. Raghavachari, A. P. Rendell, J. C. Burant, S. S. Iyengar, 
 J. Tomasi, M. Cossi, J. M. Millam, M. Klene, C. Adamo, R. Cammi, 
 J. W. Ochterski, R. L. Martin, K. Morokuma, O. Farkas, 
 J. B. Foresman, and D. J. Fox, Gaussian, Inc., Wallingford CT, 2016.
 
 ******************************************
 Gaussian 16:  EM64L-G16RevB.01 20-Dec-2017
                14-Nov-2021 
 ******************************************
 %nprocshared=4
 Will use up to    4 processors via shared memory.
 %mem=4GB
 %chk=brch3cl.chk
 %nosave
 --------------------------------------------------------
 # opt=(calcfc,ts) freq=noraman b3lyp/6-311+g(d,p) scf=qc
 --------------------------------------------------------
 1/5=1,10=4,18=20,26=3,38=1/1,3;
 2/9=110,12=2,17=6,18=5,40=1/2;
 3/5=4,6=6,7=111,11=2,25=1,30=1,71=2,74=-5,140=1/1,2,3;
 4//1;
 5/5=2,8=3,38=5/8;
 8/6=4,10=90,11=11/1;
 11/6=1,8=1,9=11,15=111,16=1/1,2,10;
 10/6=1,13=1/2;
 6/7=2,8=2,9=2,10=2,28=1/1;
 7/10=1,18=20,25=1/1,2,3,16;
 1/5=1,10=4,18=20,26=3/3(2);
 2/9=110/2;
 99//99;
 2/9=110/2;
 3/5=4,6=6,7=111,11=2,25=1,30=1,71=1,74=-5/1,2,3;
 4/5=5,16=3,69=1/1;
 5/5=2,8=3,38=5/8;
 7//1,2,3,16;
 1/5=1,18=20,26=3/3(-5);
 2/9=110/2;
 6/7=2,8=2,9=2,10=2,19=2,28=1/1;
 99/9=1/99;
 ----------------
 BrCH3Cl_6311G_dp
 ----------------
 Symbolic Z-matrix:
 Charge = -1 Multiplicity = 1
 C                     3.00963   0.02019   0.21496 
 H                     2.62439   0.33104  -0.73364 
 H                     2.81723   0.60692   1.08883 
 H                     3.58727  -0.87739   0.28972 
 Br                    1.33902  -1.02702   0.55025 
 Cl                    4.68024   1.06739  -0.12033 
 

 GradGradGradGradGradGradGradGradGradGradGradGradGradGradGradGradGradGrad
 Berny optimization.
 Initialization pass.
                           ----------------------------
                           !    Initial Parameters    !
                           ! (Angstroms and Degrees)  !
 --------------------------                            --------------------------
 ! Name  Definition              Value          Derivative Info.                !
 --------------------------------------------------------------------------------
 ! R1    R(1,2)                  1.07           calculate D2E/DX2 analytically  !
 ! R2    R(1,3)                  1.07           calculate D2E/DX2 analytically  !
 ! R3    R(1,4)                  1.07           calculate D2E/DX2 analytically  !
 ! R4    R(1,5)                  2.0            calculate D2E/DX2 analytically  !
 ! R5    R(1,6)                  2.0            calculate D2E/DX2 analytically  !
 ! A1    A(2,1,3)              119.9998         calculate D2E/DX2 analytically  !
 ! A2    A(2,1,4)              120.0002         calculate D2E/DX2 analytically  !
 ! A3    A(2,1,5)               90.0            calculate D2E/DX2 analytically  !
 ! A4    A(2,1,6)               90.0            calculate D2E/DX2 analytically  !
 ! A5    A(3,1,4)              120.0            calculate D2E/DX2 analytically  !
 ! A6    A(3,1,5)               90.0001         calculate D2E/DX2 analytically  !
 ! A7    A(3,1,6)               90.0001         calculate D2E/DX2 analytically  !
 ! A8    A(4,1,5)               89.9999         calculate D2E/DX2 analytically  !
 ! A9    A(4,1,6)               89.9999         calculate D2E/DX2 analytically  !
 ! A10   L(5,1,6,2,-1)         180.0            calculate D2E/DX2 analytically  !
 ! A11   L(5,1,6,2,-2)         180.0003         calculate D2E/DX2 analytically  !
 ! D1    D(2,1,4,3)           -180.0            calculate D2E/DX2 analytically  !
 ! D2    D(2,1,5,3)           -119.9998         calculate D2E/DX2 analytically  !
 ! D3    D(2,1,6,3)            119.9998         calculate D2E/DX2 analytically  !
 ! D4    D(2,1,5,4)            120.0002         calculate D2E/DX2 analytically  !
 ! D5    D(2,1,6,4)           -120.0002         calculate D2E/DX2 analytically  !
 ! D6    D(3,1,5,4)           -120.0            calculate D2E/DX2 analytically  !
 ! D7    D(3,1,6,4)            120.0            calculate D2E/DX2 analytically  !
 --------------------------------------------------------------------------------
 Trust Radius=3.00D-01 FncErr=1.00D-07 GrdErr=1.00D-06 EigMax=2.50D+02 EigMin=1.00D-04
 Number of steps in this run=     33 maximum allowed number of steps=    100.
 Search for a saddle point of order  1.
 GradGradGradGradGradGradGradGradGradGradGradGradGradGradGradGradGradGrad

                          Input orientation:                          
 ---------------------------------------------------------------------
 Center     Atomic      Atomic             Coordinates (Angstroms)
 Number     Number       Type             X           Y           Z
 ---------------------------------------------------------------------
      1          6           0        3.009632    0.020189    0.214965
      2          1           0        2.624391    0.331042   -0.733645
      3          1           0        2.817232    0.606916    1.088826
      4          1           0        3.587272   -0.877389    0.289715
      5         35           0        1.339023   -1.027021    0.550254
      6         17           0        4.680245    1.067390   -0.120329
 ---------------------------------------------------------------------
                    Distance matrix (angstroms):
                    1          2          3          4          5
     1  C    0.000000
     2  H    1.070000   0.000000
     3  H    1.070000   1.853292   0.000000
     4  H    1.070000   1.853296   1.853294   0.000000
     5  Br   2.000000   2.268237   2.268239   2.268235   0.000000
     6  Cl   2.000000   2.268237   2.268239   2.268235   4.000000
                    6
     6  Cl   0.000000
 This structure is nearly, but not quite of a higher symmetry.
 Consider Symm=Loose if the higher symmetry is desired.
 Stoichiometry    CH3BrCl(1-)
 Framework group  C1[X(CH3BrCl)]
 Deg. of freedom    12
 Full point group                 C1      NOp   1
 Largest Abelian subgroup         C1      NOp   1
 Largest concise Abelian subgroup C1      NOp   1
                         Standard orientation:                         
 ---------------------------------------------------------------------
 Center     Atomic      Atomic             Coordinates (Angstroms)
 Number     Number       Type             X           Y           Z
 ---------------------------------------------------------------------
      1          6           0       -0.156106    0.145703    0.550177
      2          1           0        0.574607    0.927341    0.550509
      3          1           0       -1.152446    0.344905    0.214730
      4          1           0        0.109518   -0.835135    0.885291
      5         35           0        0.372914   -0.348062   -1.314316
      6         17           0       -0.685120    0.639460    2.414674
 ---------------------------------------------------------------------
 Rotational constants (GHZ):         145.9967704           1.2718904           1.2718903
 Standard basis: 6-311+G(d,p) (5D, 7F)
 There are   123 symmetry adapted cartesian basis functions of A   symmetry.
 There are   118 symmetry adapted basis functions of A   symmetry.
   118 basis functions,   207 primitive gaussians,   123 cartesian basis functions
    31 alpha electrons       31 beta electrons
       nuclear repulsion energy       207.4200277206 Hartrees.
 NAtoms=    6 NActive=    6 NUniq=    6 SFac= 1.00D+00 NAtFMM=   60 NAOKFM=F Big=F
 Integral buffers will be    131072 words long.
 Raffenetti 2 integral format.
 Two-electron integral symmetry is turned on.
 One-electron integrals computed using PRISM.
 NBasis=   118 RedAO= T EigKep=  7.64D-04  NBF=   118
 NBsUse=   118 1.00D-06 EigRej= -1.00D+00 NBFU=   118
 ExpMin= 3.50D-02 ExpMax= 4.40D+05 ExpMxC= 1.51D+04 IAcc=3 IRadAn=         5 AccDes= 0.00D+00
 Harris functional with IExCor=  402 and IRadAn=       5 diagonalized for initial guess.
 HarFok:  IExCor=  402 AccDes= 0.00D+00 IRadAn=         5 IDoV= 1 UseB2=F ITyADJ=14
 ICtDFT=  3500011 ScaDFX=  1.000000  1.000000  1.000000  1.000000
 FoFCou: FMM=F IPFlag=           0 FMFlag=      100000 FMFlg1=           0
         NFxFlg=           0 DoJE=T BraDBF=F KetDBF=T FulRan=T
         wScrn=  0.000000 ICntrl=       500 IOpCl=  0 I1Cent=   200000004 NGrid=           0
         NMat0=    1 NMatS0=      1 NMatT0=    0 NMatD0=    1 NMtDS0=    0 NMtDT0=    0
 Petite list used in FoFCou.
 Keep R1 ints in memory in canonical form, NReq=28442027.
 Gradient too large for Newton-Raphson -- use scaled steepest descent instead.
     Minimum is close to point  3 DX= -4.23D-03 DF= -1.25D-05 DXR=  1.07D-02 DFR=  1.12D-04 which will be used.
 Gradient too large for Newton-Raphson -- use scaled steepest descent instead.
     Accept linear search using points  2 and  3.
 Gradient too large for Newton-Raphson -- use scaled steepest descent instead.
     Accept linear search using points  2 and  3.
 Gradient too large for Newton-Raphson -- use scaled steepest descent instead.
     Minimum is close to point  2 DX=  4.55D-02 DF= -2.73D-06 DXR=  8.34D-02 DFR=  7.00D-03 which will be used.
 Gradient too large for Newton-Raphson -- use scaled steepest descent instead.
 Gradient too large for Newton-Raphson -- use scaled steepest descent instead.
     Accept linear search using points  1 and  2.
 Gradient too large for Newton-Raphson -- use scaled steepest descent instead.
 LinEq1:  Iter=  0 NonCon=     1 RMS=2.94D-05 Max=9.14D-04 NDo=     1
 AX will form     1 AO Fock derivatives at one time.
 LinEq1:  Iter=  1 NonCon=     1 RMS=2.37D-05 Max=8.65D-04 NDo=     1
 LinEq1:  Iter=  2 NonCon=     1 RMS=1.80D-06 Max=5.45D-05 NDo=     1
 LinEq1:  Iter=  3 NonCon=     1 RMS=1.43D-06 Max=3.68D-05 NDo=     1
 LinEq1:  Iter=  4 NonCon=     1 RMS=3.27D-07 Max=5.32D-06 NDo=     1
 LinEq1:  Iter=  5 NonCon=     1 RMS=2.05D-07 Max=3.38D-06 NDo=     1
 LinEq1:  Iter=  6 NonCon=     1 RMS=3.05D-08 Max=3.67D-07 NDo=     1
 LinEq1:  Iter=  7 NonCon=     1 RMS=1.11D-08 Max=1.76D-07 NDo=     1
 LinEq1:  Iter=  8 NonCon=     0 RMS=2.36D-09 Max=4.46D-08 NDo=     1
 Linear equations converged to 7.344D-09 7.344D-08 after     8 iterations.
     Minimum is close to point  2 DX=  1.38D-04 DF=  0.00D+00 DXR=  1.38D-04 DFR=  0.00D+00 which will be used.
 SCF Done:  E(RB3LYP) =  -3074.31777305     a.u. after    9 cycles
            Convg  =    0.6671D-06                    31 Fock formations.
              S**2 =  0.0000                  -V/T =  2.0012
 DoSCS=F DFT=T ScalE2(SS,OS)=  1.000000  1.000000
 Range of M.O.s used for correlation:     1   118
 NBasis=   118 NAE=    31 NBE=    31 NFC=     0 NFV=     0
 NROrb=    118 NOA=    31 NOB=    31 NVA=    87 NVB=    87

 **** Warning!!: The largest alpha MO coefficient is  0.16282758D+02

 Symmetrizing basis deriv contribution to polar:
 IMax=3 JMax=2 DiffMx= 0.00D+00
 G2DrvN: will do     7 centers at a time, making    1 passes.
 Calling FoFCou, ICntrl=  3107 FMM=F I1Cent=   0 AccDes= 0.00D+00.
 End of G2Drv F.D. properties file   721 does not exist.
 End of G2Drv F.D. properties file   722 does not exist.
 End of G2Drv F.D. properties file   788 does not exist.
          IDoAtm=111111
          Differentiating once with respect to nuclear coordinates.
 Keep R1 ints in memory in canonical form, NReq=28433433.
          There are    21 degrees of freedom in the 1st order CPHF.  IDoFFX=6 NUNeed=     0.
     15 vectors produced by pass  0 Test12= 1.28D-14 4.76D-09 XBig12= 2.04D-01 1.96D-01.
 AX will form    15 AO Fock derivatives at one time.
     15 vectors produced by pass  1 Test12= 1.28D-14 4.76D-09 XBig12= 5.54D-03 1.67D-02.
     15 vectors produced by pass  2 Test12= 1.28D-14 4.76D-09 XBig12= 2.62D-04 5.97D-03.
     15 vectors produced by pass  3 Test12= 1.28D-14 4.76D-09 XBig12= 1.93D-05 1.37D-03.
     15 vectors produced by pass  4 Test12= 1.28D-14 4.76D-09 XBig12= 3.42D-07 1.45D-04.
     15 vectors produced by pass  5 Test12= 1.28D-14 4.76D-09 XBig12= 1.23D-09 8.29D-06.
      8 vectors produced by pass  6 Test12= 1.28D-14 4.76D-09 XBig12= 3.32D-12 6.48D-07.
      2 vectors produced by pass  7 Test12= 1.28D-14 4.76D-09 XBig12= 6.19D-15 1.73D-08.
 InvSVY:  IOpt=1 It=  1 EMax= 1.11D-15
 Solved reduced A of dimension   100 with    15 vectors.
 End of Minotr F.D. properties file   721 does not exist.
 End of Minotr F.D. properties file   722 does not exist.
 End of Minotr F.D. properties file   788 does not exist.

 **********************************************************************

            Population analysis using the SCF Density.

 **********************************************************************

 Orbital symmetries:
       Occupied  (A) (A) (A) (A) (A) (A) (A) (A) (A) (A) (A) (A)
                 (A) (A) (A) (A) (A) (A) (A) (A) (A) (A) (A) (A)
                 (A) (A) (A) (A) (A) (A) (A)
       Virtual   (A) (A) (A) (A) (A) (A) (A) (A) (A) (A) (A) (A)
                 (A) (A) (A) (A) (A) (A) (A) (A) (A) (A) (A) (A)
                 (A) (A) (A) (A) (A) (A) (A) (A) (A) (A) (A) (A)
                 (A) (A) (A) (A) (A) (A) (A) (A) (A) (A) (A) (A)
                 (A) (A) (A) (A) (A) (A) (A) (A) (A) (A) (A) (A)
                 (A) (A) (A) (A) (A) (A) (A) (A) (A) (A) (A) (A)
                 (A) (A) (A) (A) (A) (A) (A) (A) (A) (A) (A) (A)
                 (A) (A) (A)
 The electronic state is 1-A.
 Alpha  occ. eigenvalues -- -482.60562-101.29658 -62.26035 -56.07888 -56.07735
 Alpha  occ. eigenvalues --  -56.07735 -10.04666  -9.21379  -8.47112  -6.97411
 Alpha  occ. eigenvalues --   -6.97038  -6.97038  -6.29803  -6.29194  -6.29194
 Alpha  occ. eigenvalues --   -2.41003  -2.40816  -2.40816  -2.40334  -2.40334
 Alpha  occ. eigenvalues --   -0.64690  -0.58042  -0.46768  -0.30295  -0.30295
 Alpha  occ. eigenvalues --   -0.21236  -0.10887  -0.10887  -0.08109  -0.08109
 Alpha  occ. eigenvalues --   -0.04810
 Alpha virt. eigenvalues --    0.12471   0.14788   0.16615   0.16615   0.17894
 Alpha virt. eigenvalues --    0.20601   0.20601   0.22050   0.24288   0.24288
 Alpha virt. eigenvalues --    0.24319   0.28620   0.28620   0.28807   0.33969
 Alpha virt. eigenvalues --    0.39887   0.54330   0.55564   0.55564   0.57440
 Alpha virt. eigenvalues --    0.57440   0.58673   0.63556   0.63557   0.73764
 Alpha virt. eigenvalues --    0.73764   0.76865   0.79650   0.79650   0.84208
 Alpha virt. eigenvalues --    0.84208   0.86610   0.87628   1.00177   1.09378
 Alpha virt. eigenvalues --    1.09378   1.10056   1.10796   1.10796   1.14531
 Alpha virt. eigenvalues --    1.36797   1.36797   1.39017   1.54484   1.67415
 Alpha virt. eigenvalues --    1.67416   1.90344   2.05905   2.05906   2.10042
 Alpha virt. eigenvalues --    2.10042   2.17412   2.20688   2.20689   2.32420
 Alpha virt. eigenvalues --    2.48503   2.48503   2.55479   2.63535   2.63535
 Alpha virt. eigenvalues --    2.79619   2.79619   2.82566   3.18271   3.24498
 Alpha virt. eigenvalues --    3.89141   3.89141   4.35884   4.35884   4.43228
 Alpha virt. eigenvalues --    4.43229   4.75566   6.88121   7.75562   7.75563
 Alpha virt. eigenvalues --    7.87258   9.92786  24.09075  26.04939  26.04939
 Alpha virt. eigenvalues --   26.52649  48.16025 215.91951 289.96565 289.96565
 Alpha virt. eigenvalues --  290.104591020.95332
          Condensed to atoms (all electrons):
               1          2          3          4          5          6
     1  C    5.676343   0.539815   0.539814   0.539816  -0.165349  -0.479275
     2  H    0.539815   0.609149  -0.002465  -0.002464  -0.123560  -0.211566
     3  H    0.539814  -0.002465   0.609148  -0.002464  -0.123560  -0.211564
     4  H    0.539816  -0.002464  -0.002464   0.609150  -0.123560  -0.211568
     5  Br  -0.165349  -0.123560  -0.123560  -0.123560  35.948876   0.169374
     6  Cl  -0.479275  -0.211566  -0.211564  -0.211568   0.169374  18.284483
 Mulliken charges:
               1
     1  C   -0.651166
     2  H    0.191090
     3  H    0.191090
     4  H    0.191090
     5  Br  -0.582221
     6  Cl  -0.339884
 Sum of Mulliken charges =  -1.00000
 Mulliken charges with hydrogens summed into heavy atoms:
               1
     1  C   -0.077895
     5  Br  -0.582221
     6  Cl  -0.339884
 APT charges:
               1
     1  C   -0.980773
     2  H    0.392892
     3  H    0.392893
     4  H    0.392891
     5  Br  -0.588111
     6  Cl  -0.609792
 Sum of APT charges =  -1.00000
 APT charges with hydrogens summed into heavy atoms:
               1
     1  C    0.197903
     5  Br  -0.588111
     6  Cl  -0.609792
 Electronic spatial extent (au):  <R**2>=            801.6643
 Charge=             -1.0000 electrons
 Dipole moment (field-independent basis, Debye):
    X=              0.8313    Y=             -0.7759    Z=             -2.9300  Tot=              3.1429
 Quadrupole moment (field-independent basis, Debye-Ang):
   XX=            -45.8955   YY=            -45.5867   ZZ=            -73.2680
   XY=              2.2368   XZ=              8.4464   YZ=             -7.8835
 Traceless Quadrupole moment (field-independent basis, Debye-Ang):
   XX=              9.0212   YY=              9.3300   ZZ=            -18.3512
   XY=              2.2368   XZ=              8.4464   YZ=             -7.8835
 Octapole moment (field-independent basis, Debye-Ang**2):
  XXX=             10.5851  YYY=            -10.8978  ZZZ=            -85.0085  XYY=              5.1218
  XXY=             -3.5724  XXZ=            -16.2254  XZZ=             17.2725  YZZ=            -16.3112
  YYZ=            -15.0002  XYZ=              3.6815
 Hexadecapole moment (field-independent basis, Debye-Ang**3):
 XXXX=           -137.3787 YYYY=           -129.3742 ZZZZ=          -1016.4145 XXXY=             31.1803
 XXXZ=            118.9653 YYYX=             31.8561 YYYZ=           -111.0001 ZZZX=            151.8160
 ZZZY=           -141.9980 XXYY=            -45.0001 XXZZ=           -181.7413 YYZZ=           -178.3254
 XXYZ=            -38.5707 YYXZ=             41.6064 ZZXY=             19.6909
 N-N= 2.074200277206D+02 E-N=-7.768731423152D+03  KE= 3.070722319174D+03
  Exact polarizability:   0.000   0.000   0.000   0.000   0.000   0.000
 Approx polarizability:  66.542  -6.532  65.640 -24.667  23.023 146.479
 Calling FoFJK, ICntrl=    100147 FMM=F ISym2X=0 I1Cent= 0 IOpClX= 0 NMat=1 NMatS=1 NMatT=0.
 ***** Axes restored to original set *****
 -------------------------------------------------------------------
 Center     Atomic                   Forces (Hartrees/Bohr)
 Number     Number              X              Y              Z
 -------------------------------------------------------------------
      1        6           0.007435775    0.004661303   -0.001492167
      2        1           0.005814546    0.003809554   -0.001474615
      3        1           0.005871696    0.003891268   -0.000927994
      4        1           0.006101954    0.003448144   -0.001168087
      5       35          -0.101178870   -0.063420829    0.020306312
      6       17           0.075954899    0.047610561   -0.015243450
 -------------------------------------------------------------------
 Cartesian Forces:  Max     0.101178870 RMS     0.035878418
 FormGI is forming the generalized inverse of G from B-inverse, IUseBI=4.

 GradGradGradGradGradGradGradGradGradGradGradGradGradGradGradGradGradGrad
 Berny optimization.
 Internal  Forces:  Max     0.121126841 RMS     0.031652526
 Search for a saddle point.
 Step number   1 out of a maximum of   33
 All quantities printed in internal units (Hartrees-Bohrs-Radians)
 Swapping is turned off.
 Second derivative matrix not updated -- analytic derivatives used.
 ITU=  0
     Eigenvalues ---   -0.00402   0.02663   0.02670   0.10433   0.10434
     Eigenvalues ---    0.14742   0.14744   0.15213   0.23978   0.37341
     Eigenvalues ---    0.37438   0.37439
 Eigenvectors required to have negative eigenvalues:
                          D1        R5        R4        A8        A7
   1                    0.67628  -0.42303   0.36407  -0.19638   0.19598
                          A4        A3        A6        A9        D2
   1                    0.19585  -0.19473  -0.19456   0.19385   0.02333
 RFO step:  Lambda0=1.416014315D-03 Lambda=-7.40060065D-02.
 Linear search not attempted -- option 19 set.
 Maximum step size (   0.300) exceeded in Quadratic search.
    -- Step size scaled by   0.483
 Iteration  1 RMS(Cart)=  0.04008557 RMS(Int)=  0.01524005
 Iteration  2 RMS(Cart)=  0.01390089 RMS(Int)=  0.00138715
 Iteration  3 RMS(Cart)=  0.00000025 RMS(Int)=  0.00138715
 Variable       Old X    -DE/DX   Delta X   Delta X   Delta X     New X
                                 (Linear)    (Quad)   (Total)
    R1        2.02201   0.00032   0.00000  -0.00356  -0.00356   2.01845
    R2        2.02201   0.00032   0.00000  -0.00355  -0.00355   2.01845
    R3        2.02201   0.00032   0.00000  -0.00383  -0.00383   2.01818
    R4        3.77945   0.12113   0.00000   0.27243   0.27243   4.05188
    R5        3.77945   0.09093   0.00000   0.04521   0.04521   3.82466
    A1        2.09439   0.00000   0.00000  -0.00603  -0.00985   2.08454
    A2        2.09440  -0.00000   0.00000   0.00302  -0.00082   2.09358
    A3        1.57080   0.00239   0.00000  -0.04710  -0.04696   1.52383
    A4        1.57080  -0.00239   0.00000   0.04737   0.04723   1.61803
    A5        2.09440  -0.00000   0.00000   0.00301  -0.00083   2.09357
    A6        1.57080   0.00239   0.00000  -0.04701  -0.04688   1.52392
    A7        1.57080  -0.00239   0.00000   0.04743   0.04729   1.61809
    A8        1.57079   0.00239   0.00000  -0.04753  -0.04739   1.52340
    A9        1.57079  -0.00239   0.00000   0.04684   0.04671   1.61750
   A10        3.14159   0.00000   0.00000   0.00027   0.00027   3.14186
   A11        3.14160  -0.00000   0.00000   0.00064   0.00063   3.14223
    D1       -3.14159  -0.00829   0.00000   0.16354   0.16323  -2.97836
    D2       -2.09439  -0.00000   0.00000   0.00603   0.00607  -2.08832
    D3        2.09439   0.00000   0.00000  -0.00603  -0.00602   2.08837
    D4        2.09440  -0.00000   0.00000   0.00302   0.00305   2.09744
    D5       -2.09440   0.00000   0.00000  -0.00302  -0.00301  -2.09741
    D6       -2.09440   0.00000   0.00000  -0.00301  -0.00303  -2.09742
    D7        2.09440  -0.00000   0.00000   0.00301   0.00301   2.09740
         Item               Value     Threshold  Converged?
 Maximum Force            0.121127     0.000450     NO 
 RMS     Force            0.031653     0.000300     NO 
 Maximum Displacement     0.154811     0.001800     NO 
 RMS     Displacement     0.050981     0.001200     NO 
 Predicted change in Energy=-2.862314D-02
 GradGradGradGradGradGradGradGradGradGradGradGradGradGradGradGradGradGrad

                          Input orientation:                          
 ---------------------------------------------------------------------
 Center     Atomic      Atomic             Coordinates (Angstroms)
 Number     Number       Type             X           Y           Z
 ---------------------------------------------------------------------
      1          6           0        3.047756    0.043244    0.207470
      2          1           0        2.620277    0.329461   -0.728596
      3          1           0        2.812240    0.604068    1.085472
      4          1           0        3.581698   -0.877946    0.290422
      5         35           0        1.257101   -1.080063    0.566887
      6         17           0        4.738723    1.102364   -0.131868
 ---------------------------------------------------------------------
                    Distance matrix (angstroms):
                    1          2          3          4          5
     1  C    0.000000
     2  H    1.068119   0.000000
     3  H    1.068119   1.844750   0.000000
     4  H    1.067973   1.849476   1.849469   0.000000
     5  Br   2.144165   2.350167   2.350252   2.349689   0.000000
     6  Cl   2.023922   2.332655   2.332714   2.332095   4.168086
                    6
     6  Cl   0.000000
 Stoichiometry    CH3BrCl(1-)
 Framework group  C1[X(CH3BrCl)]
 Deg. of freedom    12
 Full point group                 C1      NOp   1
 Largest Abelian subgroup         C1      NOp   1
 Largest concise Abelian subgroup C1      NOp   1
                         Standard orientation:                         
 ---------------------------------------------------------------------
 Center     Atomic      Atomic             Coordinates (Angstroms)
 Number     Number       Type             X           Y           Z
 ---------------------------------------------------------------------
      1          6           0       -0.668687    0.000490   -0.000075
      2          1           0       -0.618420    0.537307    0.921975
      3          1           0       -0.618440    0.536196   -0.922774
      4          1           0       -0.618405   -1.066299    0.000559
      5         35           0        1.475478   -0.000143    0.000010
      6         17           0       -2.692608   -0.000302    0.000021
 ---------------------------------------------------------------------
 Rotational constants (GHZ):         146.8494355           1.1688227           1.1687909
 Standard basis: 6-311+G(d,p) (5D, 7F)
 There are   123 symmetry adapted cartesian basis functions of A   symmetry.
 There are   118 symmetry adapted basis functions of A   symmetry.
   118 basis functions,   207 primitive gaussians,   123 cartesian basis functions
    31 alpha electrons       31 beta electrons
       nuclear repulsion energy       199.0290130481 Hartrees.
 NAtoms=    6 NActive=    6 NUniq=    6 SFac= 1.00D+00 NAtFMM=   60 NAOKFM=F Big=F
 Integral buffers will be    131072 words long.
 Raffenetti 2 integral format.
 Two-electron integral symmetry is turned on.
 One-electron integrals computed using PRISM.
 NBasis=   118 RedAO= T EigKep=  9.19D-04  NBF=   118
 NBsUse=   118 1.00D-06 EigRej= -1.00D+00 NBFU=   118
 Initial guess from the checkpoint file:  "brch3cl.chk"
 B after Tr=    -0.000000    0.000000    0.000000
         Rot=    0.768560   -0.203889    0.606420    0.000262 Ang= -79.55 deg.
 ExpMin= 3.50D-02 ExpMax= 4.40D+05 ExpMxC= 1.51D+04 IAcc=3 IRadAn=         5 AccDes= 0.00D+00
 Harris functional with IExCor=  402 and IRadAn=       5 diagonalized for initial guess.
 HarFok:  IExCor=  402 AccDes= 0.00D+00 IRadAn=         5 IDoV= 1 UseB2=F ITyADJ=14
 ICtDFT=  3500011 ScaDFX=  1.000000  1.000000  1.000000  1.000000
 FoFCou: FMM=F IPFlag=           0 FMFlag=      100000 FMFlg1=           0
         NFxFlg=           0 DoJE=T BraDBF=F KetDBF=T FulRan=T
         wScrn=  0.000000 ICntrl=       500 IOpCl=  0 I1Cent=   200000004 NGrid=           0
         NMat0=    1 NMatS0=      1 NMatT0=    0 NMatD0=    1 NMtDS0=    0 NMtDT0=    0
 Petite list used in FoFCou.
 Keep R1 ints in memory in canonical form, NReq=28442027.
 Gradient too large for Newton-Raphson -- use scaled steepest descent instead.
     Accept linear search using points  3 and  4.
 Gradient too large for Newton-Raphson -- use scaled steepest descent instead.
 Gradient too large for Newton-Raphson -- use scaled steepest descent instead.
 Gradient too large for Newton-Raphson -- use scaled steepest descent instead.
     Accept linear search using points  1 and  2.
 Gradient too large for Newton-Raphson -- use scaled steepest descent instead.
 Gradient too large for Newton-Raphson -- use scaled steepest descent instead.
 Gradient too large for Newton-Raphson -- use scaled steepest descent instead.
 Gradient too large for Newton-Raphson -- use scaled steepest descent instead.
     Accept linear search using points  1 and  2.
 Gradient too large for Newton-Raphson -- use scaled steepest descent instead.
 Gradient too large for Newton-Raphson -- use scaled steepest descent instead.
     Minimum is close to point  4 DX= -7.54D-03 DF= -2.98D-07 DXR=  8.16D-02 DFR=  6.70D-03 which will be used.
 Gradient too large for Newton-Raphson -- use scaled steepest descent instead.
 Gradient too large for Newton-Raphson -- use scaled steepest descent instead.
     Accept linear search using points  1 and  2.
 Gradient too large for Newton-Raphson -- use scaled steepest descent instead.
     Minimum is close to point  3 DX=  3.98D-02 DF= -2.50D-07 DXR=  7.37D-02 DFR=  5.47D-03 which will be used.
 Gradient too large for Newton-Raphson -- use scaled steepest descent instead.
     Minimum is close to point  4 DX= -7.93D-03 DF= -2.86D-07 DXR=  8.61D-02 DFR=  7.48D-03 which will be used.
 Gradient too large for Newton-Raphson -- use scaled steepest descent instead.
 Gradient too large for Newton-Raphson -- use scaled steepest descent instead.
     Accept linear search using points  1 and  2.
 Gradient too large for Newton-Raphson -- use scaled steepest descent instead.
 Gradient too large for Newton-Raphson -- use scaled steepest descent instead.
     Minimum is close to point  4 DX= -7.90D-03 DF= -3.06D-07 DXR=  8.87D-02 DFR=  7.93D-03 which will be used.
 Gradient too large for Newton-Raphson -- use scaled steepest descent instead.
 Gradient too large for Newton-Raphson -- use scaled steepest descent instead.
     Minimum is close to point  3 DX=  1.01D-02 DF= -1.73D-07 DXR=  9.21D-02 DFR=  8.55D-03 which will be used.
 Gradient too large for Newton-Raphson -- use scaled steepest descent instead.
     Accept linear search using points  2 and  3.
 Gradient too large for Newton-Raphson -- use scaled steepest descent instead.
     Minimum is close to point  3 DX= -1.21D-03 DF= -3.53D-09 DXR=  1.23D-02 DFR=  1.51D-04 which will be used.
 Gradient too large for Newton-Raphson -- use scaled steepest descent instead.
     Accept linear search using points  1 and  2.
 Gradient too large for Newton-Raphson -- use scaled steepest descent instead.
     Accept linear search using points  1 and  2.
 Gradient too large for Newton-Raphson -- use scaled steepest descent instead.
     Accept linear search using points  5 and  6.
     Minimum is close to point  6 DX= -1.47D-01 DF= -4.89D-07 DXR=  4.53D-02 DFR=  3.20D-03 which will be used.
 Gradient too large for Newton-Raphson -- use scaled steepest descent instead.
 Gradient too large for Newton-Raphson -- use scaled steepest descent instead.
 Gradient too large for Newton-Raphson -- use scaled steepest descent instead.
 Gradient too large for Newton-Raphson -- use scaled steepest descent instead.
     Minimum is close to point  2 DX=  7.67D-02 DF= -3.72D-08 DXR=  1.98D-02 DFR=  3.91D-04 which will be used.
 Gradient too large for Newton-Raphson -- use scaled steepest descent instead.
     Minimum is close to point  5 DX=  1.07D-06 DF= -9.09D-13 DXR=  1.36D-05 DFR=  1.14D-08 which will be used.
 Gradient too large for Newton-Raphson -- use scaled steepest descent instead.
     Minimum is close to point  2 DX= -1.68D-01 DF= -1.45D-07 DXR=  4.51D-02 DFR=  2.03D-03 which will be used.
 Gradient too large for Newton-Raphson -- use scaled steepest descent instead.
 Gradient too large for Newton-Raphson -- use scaled steepest descent instead.
 Gradient too large for Newton-Raphson -- use scaled steepest descent instead.
 Gradient too large for Newton-Raphson -- use scaled steepest descent instead.
 Gradient too large for Newton-Raphson -- use scaled steepest descent instead.
     Accept linear search using points  1 and  2.
 Gradient too large for Newton-Raphson -- use scaled steepest descent instead.
     Accept linear search using points  4 and  5.
 Gradient too large for Newton-Raphson -- use scaled steepest descent instead.
 Gradient too large for Newton-Raphson -- use scaled steepest descent instead.
 Gradient too large for Newton-Raphson -- use scaled steepest descent instead.
 Gradient too large for Newton-Raphson -- use scaled steepest descent instead.
     Accept linear search using points  1 and  2.
 Gradient too large for Newton-Raphson -- use scaled steepest descent instead.
     Accept linear search using points  1 and  2.
 Gradient too large for Newton-Raphson -- use scaled steepest descent instead.
 Gradient too large for Newton-Raphson -- use scaled steepest descent instead.
 Gradient too large for Newton-Raphson -- use scaled steepest descent instead.
     Accept linear search using points  1 and  2.
 Gradient too large for Newton-Raphson -- use scaled steepest descent instead.
 Gradient too large for Newton-Raphson -- use scaled steepest descent instead.
 Gradient too large for Newton-Raphson -- use scaled steepest descent instead.
 Gradient too large for Newton-Raphson -- use scaled steepest descent instead.
     Accept linear search using points  1 and  2.
 Gradient too large for Newton-Raphson -- use scaled steepest descent instead.
     Accept linear search using points  2 and  3.
 Gradient too large for Newton-Raphson -- use scaled steepest descent instead.
     Accept linear search using points  1 and  2.
 Gradient too large for Newton-Raphson -- use scaled steepest descent instead.
 Gradient too large for Newton-Raphson -- use scaled steepest descent instead.
     Minimum is close to point  3 DX=  2.92D-07 DF=  0.00D+00 DXR=  3.51D-06 DFR=  0.00D+00 which will be used.
 Gradient too large for Newton-Raphson -- use scaled steepest descent instead.
     Minimum is close to point  2 DX=  3.78D-02 DF= -1.45D-08 DXR=  3.64D-02 DFR=  1.33D-03 which will be used.
 Gradient too large for Newton-Raphson -- use scaled steepest descent instead.
     Minimum is close to point  3 DX=  3.14D-07 DF= -1.82D-12 DXR=  3.75D-06 DFR=  1.82D-07 which will be used.
 Gradient too large for Newton-Raphson -- use scaled steepest descent instead.
     Accept linear search using points  1 and  2.
     Minimum is close to point  2 DX= -3.62D-02 DF= -1.39D-08 DXR=  3.76D-02 DFR=  1.42D-03 which will be used.
 Gradient too large for Newton-Raphson -- use scaled steepest descent instead.
     Minimum is close to point  3 DX=  1.70D-07 DF=  0.00D+00 DXR=  2.04D-06 DFR=  0.00D+00 which will be used.
 Gradient too large for Newton-Raphson -- use scaled steepest descent instead.
     Minimum is close to point  2 DX=  3.76D-02 DF= -1.33D-08 DXR=  3.62D-02 DFR=  1.31D-03 which will be used.
 Gradient too large for Newton-Raphson -- use scaled steepest descent instead.
     Minimum is close to point  3 DX=  6.75D-07 DF= -4.09D-12 DXR=  8.05D-06 DFR=  4.42D-07 which will be used.
 Gradient too large for Newton-Raphson -- use scaled steepest descent instead.
     Accept linear search using points  1 and  2.
     Minimum is close to point  2 DX= -3.74D-02 DF= -1.37D-08 DXR=  3.88D-02 DFR=  1.51D-03 which will be used.
 Gradient too large for Newton-Raphson -- use scaled steepest descent instead.
     Minimum is close to point  3 DX=  1.64D-07 DF= -4.55D-13 DXR=  1.97D-06 DFR=  4.75D-08 which will be used.
 Gradient too large for Newton-Raphson -- use scaled steepest descent instead.
     Minimum is close to point  2 DX=  3.06D-02 DF= -8.21D-09 DXR=  2.97D-02 DFR=  8.81D-04 which will be used.
 Gradient too large for Newton-Raphson -- use scaled steepest descent instead.
     Minimum is close to point  3 DX=  1.84D-07 DF= -4.55D-13 DXR=  2.20D-06 DFR=  5.26D-08 which will be used.
 Gradient too large for Newton-Raphson -- use scaled steepest descent instead.
     Accept linear search using points  1 and  2.
     Minimum is close to point  2 DX= -7.33D-02 DF= -5.12D-08 DXR=  7.91D-02 DFR=  6.30D-03 which will be used.
 Gradient too large for Newton-Raphson -- use scaled steepest descent instead.
 Gradient too large for Newton-Raphson -- use scaled steepest descent instead.
     Accept linear search using points  1 and  2.
 Gradient too large for Newton-Raphson -- use scaled steepest descent instead.
 Gradient too large for Newton-Raphson -- use scaled steepest descent instead.
     Accept linear search using points  1 and  2.
 Gradient too large for Newton-Raphson -- use scaled steepest descent instead.
 Gradient too large for Newton-Raphson -- use scaled steepest descent instead.
     Accept linear search using points  1 and  2.
 Gradient too large for Newton-Raphson -- use scaled steepest descent instead.
     Accept linear search using points  1 and  2.
 Gradient too large for Newton-Raphson -- use scaled steepest descent instead.
     Minimum is close to point  6 DX=  8.29D-02 DF= -1.21D-08 DXR=  2.38D-02 DFR=  4.59D-04 which will be used.
 Gradient too large for Newton-Raphson -- use scaled steepest descent instead.
 Gradient too large for Newton-Raphson -- use scaled steepest descent instead.
 Gradient too large for Newton-Raphson -- use scaled steepest descent instead.
     Minimum is close to point  3 DX=  7.28D-03 DF= -2.93D-08 DXR=  6.79D-02 DFR=  4.63D-03 which will be used.
 Gradient too large for Newton-Raphson -- use scaled steepest descent instead.
 Gradient too large for Newton-Raphson -- use scaled steepest descent instead.
     Accept linear search using points  1 and  2.
 Gradient too large for Newton-Raphson -- use scaled steepest descent instead.
     Minimum is close to point  4 DX=  3.54D-02 DF= -9.34D-09 DXR=  3.79D-02 DFR=  1.44D-03 which will be used.
 Gradient too large for Newton-Raphson -- use scaled steepest descent instead.
 Gradient too large for Newton-Raphson -- use scaled steepest descent instead.
     Accept linear search using points  1 and  2.
 Gradient too large for Newton-Raphson -- use scaled steepest descent instead.
     Minimum is close to point  4 DX= -4.82D-03 DF= -9.39D-09 DXR=  5.06D-02 DFR=  2.57D-03 which will be used.
 Gradient too large for Newton-Raphson -- use scaled steepest descent instead.
     Accept linear search using points  1 and  2.
 Gradient too large for Newton-Raphson -- use scaled steepest descent instead.
 Gradient too large for Newton-Raphson -- use scaled steepest descent instead.
     Accept linear search using points  1 and  2.
 Gradient too large for Newton-Raphson -- use scaled steepest descent instead.
     Minimum is close to point  3 DX= -6.48D-03 DF= -1.16D-09 DXR=  2.21D-02 DFR=  4.89D-04 which will be used.
 Gradient too large for Newton-Raphson -- use scaled steepest descent instead.
     Minimum is close to point  3 DX=  2.95D-03 DF= -1.99D-09 DXR=  2.86D-02 DFR=  8.20D-04 which will be used.
 Gradient too large for Newton-Raphson -- use scaled steepest descent instead.
 Gradient too large for Newton-Raphson -- use scaled steepest descent instead.
     Minimum is close to point  3 DX= -1.28D-04 DF= -4.09D-12 DXR=  1.31D-03 DFR=  1.49D-06 which will be used.
 Gradient too large for Newton-Raphson -- use scaled steepest descent instead.
     Accept linear search using points  1 and  2.
 Gradient too large for Newton-Raphson -- use scaled steepest descent instead.
     Accept linear search using points  1 and  2.
 Gradient too large for Newton-Raphson -- use scaled steepest descent instead.
 Gradient too large for Newton-Raphson -- use scaled steepest descent instead.
     Minimum is close to point  5 DX=  2.86D-07 DF= -4.55D-13 DXR=  3.64D-06 DFR=  2.02D-08 which will be used.
 Gradient too large for Newton-Raphson -- use scaled steepest descent instead.
     Minimum is close to point  2 DX=  5.72D-02 DF= -4.22D-09 DXR=  1.41D-02 DFR=  1.99D-04 which will be used.
 Gradient too large for Newton-Raphson -- use scaled steepest descent instead.
     Minimum is close to point  5 DX=  1.54D-07 DF= -4.55D-12 DXR=  1.96D-06 DFR=  2.32D-07 which will be used.
 Gradient too large for Newton-Raphson -- use scaled steepest descent instead.
     Minimum is close to point  2 DX= -1.53D-01 DF= -2.80D-08 DXR=  3.88D-02 DFR=  1.51D-03 which will be used.
 Gradient too large for Newton-Raphson -- use scaled steepest descent instead.
     Minimum is close to point  5 DX=  2.26D-07 DF= -4.55D-13 DXR=  2.88D-06 DFR=  2.39D-08 which will be used.
 Gradient too large for Newton-Raphson -- use scaled steepest descent instead.
     Minimum is close to point  2 DX= -8.17D-02 DF= -7.41D-09 DXR=  2.14D-02 DFR=  4.58D-04 which will be used.
 Gradient too large for Newton-Raphson -- use scaled steepest descent instead.
     Minimum is close to point  5 DX=  2.00D-07 DF= -4.55D-13 DXR=  2.48D-06 DFR=  2.90D-08 which will be used.
 Gradient too large for Newton-Raphson -- use scaled steepest descent instead.
 Gradient too large for Newton-Raphson -- use scaled steepest descent instead.
 Gradient too large for Newton-Raphson -- use scaled steepest descent instead.
     Accept linear search using points  1 and  2.
 Gradient too large for Newton-Raphson -- use scaled steepest descent instead.
 Gradient too large for Newton-Raphson -- use scaled steepest descent instead.
     Accept linear search using points  1 and  2.
 Gradient too large for Newton-Raphson -- use scaled steepest descent instead.
 Gradient too large for Newton-Raphson -- use scaled steepest descent instead.
 Gradient too large for Newton-Raphson -- use scaled steepest descent instead.
     Minimum is close to point  2 DX= -2.35D-02 DF= -1.22D-09 DXR=  1.40D-02 DFR=  1.96D-04 which will be used.
 Gradient too large for Newton-Raphson -- use scaled steepest descent instead.
 Gradient too large for Newton-Raphson -- use scaled steepest descent instead.
     Minimum is close to point  2 DX=  2.35D-02 DF= -1.14D-09 DXR=  1.36D-02 DFR=  1.86D-04 which will be used.
 Gradient too large for Newton-Raphson -- use scaled steepest descent instead.
 Gradient too large for Newton-Raphson -- use scaled steepest descent instead.
     Minimum is close to point  2 DX= -3.31D-02 DF= -2.24D-09 DXR=  1.99D-02 DFR=  3.94D-04 which will be used.
 Gradient too large for Newton-Raphson -- use scaled steepest descent instead.
 Gradient too large for Newton-Raphson -- use scaled steepest descent instead.
     Accept linear search using points  1 and  2.
     Minimum is close to point  2 DX= -5.51D-02 DF= -1.25D-08 DXR=  3.35D-02 DFR=  2.51D-03 which will be used.
 Gradient too large for Newton-Raphson -- use scaled steepest descent instead.
 Gradient too large for Newton-Raphson -- use scaled steepest descent instead.
 Gradient too large for Newton-Raphson -- use scaled steepest descent instead.
 Gradient too large for Newton-Raphson -- use scaled steepest descent instead.
     Minimum is close to point  3 DX=  1.24D-02 DF= -3.45D-09 DXR=  5.83D-02 DFR=  3.41D-03 which will be used.
 Gradient too large for Newton-Raphson -- use scaled steepest descent instead.
     Accept linear search using points  1 and  2.
 Gradient too large for Newton-Raphson -- use scaled steepest descent instead.
     Accept linear search using points  4 and  5.
 Gradient too large for Newton-Raphson -- use scaled steepest descent instead.
 Gradient too large for Newton-Raphson -- use scaled steepest descent instead.
     Accept linear search using points  1 and  2.
 Gradient too large for Newton-Raphson -- use scaled steepest descent instead.
 Gradient too large for Newton-Raphson -- use scaled steepest descent instead.
     Minimum is close to point  3 DX= -3.61D-02 DF= -7.83D-09 DXR=  6.41D-02 DFR=  4.13D-03 which will be used.
 Gradient too large for Newton-Raphson -- use scaled steepest descent instead.
     Minimum is close to point  4 DX= -2.56D-03 DF= -1.33D-09 DXR=  2.63D-02 DFR=  6.92D-04 which will be used.
 Gradient too large for Newton-Raphson -- use scaled steepest descent instead.
 Gradient too large for Newton-Raphson -- use scaled steepest descent instead.
     Accept linear search using points  1 and  2.
 Gradient too large for Newton-Raphson -- use scaled steepest descent instead.
 Gradient too large for Newton-Raphson -- use scaled steepest descent instead.
     Minimum is close to point  4 DX=  3.13D-03 DF= -2.63D-09 DXR=  3.58D-02 DFR=  1.28D-03 which will be used.
 Gradient too large for Newton-Raphson -- use scaled steepest descent instead.
     Accept linear search using points  2 and  3.
 Gradient too large for Newton-Raphson -- use scaled steepest descent instead.
 Gradient too large for Newton-Raphson -- use scaled steepest descent instead.
     Accept linear search using points  1 and  2.
 Gradient too large for Newton-Raphson -- use scaled steepest descent instead.
     Minimum is close to point  4 DX= -3.44D-03 DF= -2.12D-09 DXR=  3.57D-02 DFR=  1.28D-03 which will be used.
 Gradient too large for Newton-Raphson -- use scaled steepest descent instead.
 Gradient too large for Newton-Raphson -- use scaled steepest descent instead.
     Accept linear search using points  1 and  2.
 Gradient too large for Newton-Raphson -- use scaled steepest descent instead.
 Gradient too large for Newton-Raphson -- use scaled steepest descent instead.
     Minimum is close to point  4 DX= -8.11D-03 DF= -1.46D-08 DXR=  9.14D-02 DFR=  8.42D-03 which will be used.
 Gradient too large for Newton-Raphson -- use scaled steepest descent instead.
 Gradient too large for Newton-Raphson -- use scaled steepest descent instead.
 Gradient too large for Newton-Raphson -- use scaled steepest descent instead.
     Accept linear search using points  1 and  2.
 Gradient too large for Newton-Raphson -- use scaled steepest descent instead.
     Minimum is close to point  3 DX=  8.77D-03 DF= -8.29D-10 DXR=  2.84D-02 DFR=  8.09D-04 which will be used.
 Gradient too large for Newton-Raphson -- use scaled steepest descent instead.
     Accept linear search using points  1 and  2.
 Gradient too large for Newton-Raphson -- use scaled steepest descent instead.
 Gradient too large for Newton-Raphson -- use scaled steepest descent instead.
     Minimum is close to point  4 DX=  3.95D-04 DF= -2.05D-11 DXR=  4.18D-03 DFR=  1.62D-05 which will be used.
 Gradient too large for Newton-Raphson -- use scaled steepest descent instead.
     Minimum is close to point  2 DX=  3.54D-02 DF= -8.54D-09 DXR=  8.13D-02 DFR=  6.65D-03 which will be used.
 Gradient too large for Newton-Raphson -- use scaled steepest descent instead.
     Minimum is close to point  4 DX=  3.23D-03 DF= -1.24D-09 DXR=  3.32D-02 DFR=  1.10D-03 which will be used.
 Gradient too large for Newton-Raphson -- use scaled steepest descent instead.
 Gradient too large for Newton-Raphson -- use scaled steepest descent instead.
     Minimum is close to point  4 DX= -8.43D-03 DF= -1.18D-08 DXR=  9.21D-02 DFR=  8.55D-03 which will be used.
 Gradient too large for Newton-Raphson -- use scaled steepest descent instead.
 Gradient too large for Newton-Raphson -- use scaled steepest descent instead.
     Accept linear search using points  1 and  2.
 Gradient too large for Newton-Raphson -- use scaled steepest descent instead.
 Gradient too large for Newton-Raphson -- use scaled steepest descent instead.
     Minimum is close to point  4 DX= -8.30D-03 DF= -1.44D-08 DXR=  9.40D-02 DFR=  8.91D-03 which will be used.
 Gradient too large for Newton-Raphson -- use scaled steepest descent instead.
 Gradient too large for Newton-Raphson -- use scaled steepest descent instead.
 Gradient too large for Newton-Raphson -- use scaled steepest descent instead.
     Accept linear search using points  1 and  2.
 Gradient too large for Newton-Raphson -- use scaled steepest descent instead.
     Minimum is close to point  3 DX=  1.07D-02 DF= -1.13D-09 DXR=  3.43D-02 DFR=  1.18D-03 which will be used.
 Gradient too large for Newton-Raphson -- use scaled steepest descent instead.
     Accept linear search using points  1 and  2.
 Gradient too large for Newton-Raphson -- use scaled steepest descent instead.
 Gradient too large for Newton-Raphson -- use scaled steepest descent instead.
     Minimum is close to point  4 DX=  1.96D-04 DF= -4.55D-12 DXR=  2.08D-03 DFR=  3.85D-06 which will be used.
 Gradient too large for Newton-Raphson -- use scaled steepest descent instead.
     Minimum is close to point  2 DX=  3.16D-02 DF= -6.41D-09 DXR=  7.33D-02 DFR=  5.40D-03 which will be used.
 Gradient too large for Newton-Raphson -- use scaled steepest descent instead.
     Minimum is close to point  4 DX=  3.04D-03 DF= -1.03D-09 DXR=  3.12D-02 DFR=  9.75D-04 which will be used.
 Gradient too large for Newton-Raphson -- use scaled steepest descent instead.
 Gradient too large for Newton-Raphson -- use scaled steepest descent instead.
     Minimum is close to point  4 DX= -8.31D-03 DF= -1.06D-08 DXR=  9.06D-02 DFR=  8.27D-03 which will be used.
 Gradient too large for Newton-Raphson -- use scaled steepest descent instead.
 Gradient too large for Newton-Raphson -- use scaled steepest descent instead.
     Accept linear search using points  1 and  2.
 Gradient too large for Newton-Raphson -- use scaled steepest descent instead.
 Gradient too large for Newton-Raphson -- use scaled steepest descent instead.
     Minimum is close to point  4 DX= -8.20D-03 DF= -1.29D-08 DXR=  9.26D-02 DFR=  8.66D-03 which will be used.
 Gradient too large for Newton-Raphson -- use scaled steepest descent instead.
 Gradient too large for Newton-Raphson -- use scaled steepest descent instead.
     Minimum is close to point  3 DX=  1.09D-02 DF= -7.57D-09 DXR=  9.80D-02 DFR=  9.69D-03 which will be used.
 Gradient too large for Newton-Raphson -- use scaled steepest descent instead.
     Accept linear search using points  2 and  3.
 Gradient too large for Newton-Raphson -- use scaled steepest descent instead.
     Accept linear search using points  1 and  2.
 Gradient too large for Newton-Raphson -- use scaled steepest descent instead.
     Accept linear search using points  1 and  2.
 Gradient too large for Newton-Raphson -- use scaled steepest descent instead.
     Accept linear search using points  1 and  2.
 Gradient too large for Newton-Raphson -- use scaled steepest descent instead.
 Gradient too large for Newton-Raphson -- use scaled steepest descent instead.
 Gradient too large for Newton-Raphson -- use scaled steepest descent instead.
     Minimum is close to point  2 DX= -4.60D-03 DF= -9.09D-12 DXR=  1.05D-03 DFR=  1.05D-06 which will be used.
 Gradient too large for Newton-Raphson -- use scaled steepest descent instead.
 Gradient too large for Newton-Raphson -- use scaled steepest descent instead.
     Minimum is close to point  2 DX=  6.40D-03 DF= -1.73D-11 DXR=  1.45D-03 DFR=  2.18D-06 which will be used.
 Gradient too large for Newton-Raphson -- use scaled steepest descent instead.
 Gradient too large for Newton-Raphson -- use scaled steepest descent instead.
     Minimum is close to point  2 DX= -5.81D-03 DF= -1.23D-11 DXR=  1.32D-03 DFR=  1.70D-06 which will be used.
 Gradient too large for Newton-Raphson -- use scaled steepest descent instead.
 Gradient too large for Newton-Raphson -- use scaled steepest descent instead.
     Minimum is close to point  2 DX= -2.09D-02 DF= -1.51D-10 DXR=  4.77D-03 DFR=  2.28D-05 which will be used.
 Gradient too large for Newton-Raphson -- use scaled steepest descent instead.
 Gradient too large for Newton-Raphson -- use scaled steepest descent instead.
     Accept linear search using points  1 and  2.
 Gradient too large for Newton-Raphson -- use scaled steepest descent instead.
 Gradient too large for Newton-Raphson -- use scaled steepest descent instead.
 Gradient too large for Newton-Raphson -- use scaled steepest descent instead.
     Accept linear search using points  1 and  2.
 Gradient too large for Newton-Raphson -- use scaled steepest descent instead.
 Gradient too large for Newton-Raphson -- use scaled steepest descent instead.
 Gradient too large for Newton-Raphson -- use scaled steepest descent instead.
 Gradient too large for Newton-Raphson -- use scaled steepest descent instead.
 Gradient too large for Newton-Raphson -- use scaled steepest descent instead.
     Accept linear search using points  1 and  2.
 Gradient too large for Newton-Raphson -- use scaled steepest descent instead.
     Accept linear search using points  1 and  2.
 Gradient too large for Newton-Raphson -- use scaled steepest descent instead.
 Gradient too large for Newton-Raphson -- use scaled steepest descent instead.
 Gradient too large for Newton-Raphson -- use scaled steepest descent instead.
     Accept linear search using points  1 and  2.
 Gradient too large for Newton-Raphson -- use scaled steepest descent instead.
 Gradient too large for Newton-Raphson -- use scaled steepest descent instead.
 Gradient too large for Newton-Raphson -- use scaled steepest descent instead.
     Accept linear search using points  1 and  2.
 Gradient too large for Newton-Raphson -- use scaled steepest descent instead.
 Gradient too large for Newton-Raphson -- use scaled steepest descent instead.
 Gradient too large for Newton-Raphson -- use scaled steepest descent instead.
     Minimum is close to point  3 DX=  2.80D-03 DF= -2.86D-11 DXR=  6.95D-03 DFR=  4.84D-05 which will be used.
 Gradient too large for Newton-Raphson -- use scaled steepest descent instead.
 Gradient too large for Newton-Raphson -- use scaled steepest descent instead.
     Accept linear search using points  1 and  2.
 Gradient too large for Newton-Raphson -- use scaled steepest descent instead.
     Accept linear search using points  1 and  2.
 Gradient too large for Newton-Raphson -- use scaled steepest descent instead.
 Gradient too large for Newton-Raphson -- use scaled steepest descent instead.
 Gradient too large for Newton-Raphson -- use scaled steepest descent instead.
     Accept linear search using points  1 and  2.
 Gradient too large for Newton-Raphson -- use scaled steepest descent instead.
 Gradient too large for Newton-Raphson -- use scaled steepest descent instead.
 Gradient too large for Newton-Raphson -- use scaled steepest descent instead.
     Accept linear search using points  1 and  2.
 Gradient too large for Newton-Raphson -- use scaled steepest descent instead.
     Accept linear search using points  4 and  5.
 Gradient too large for Newton-Raphson -- use scaled steepest descent instead.
 Gradient too large for Newton-Raphson -- use scaled steepest descent instead.
 Gradient too large for Newton-Raphson -- use scaled steepest descent instead.
 Gradient too large for Newton-Raphson -- use scaled steepest descent instead.
     Accept linear search using points  1 and  2.
 Gradient too large for Newton-Raphson -- use scaled steepest descent instead.
     Accept linear search using points  2 and  3.
 Gradient too large for Newton-Raphson -- use scaled steepest descent instead.
     Accept linear search using points  1 and  2.
 Gradient too large for Newton-Raphson -- use scaled steepest descent instead.
     Minimum is close to point  6 DX=  1.99D-02 DF= -2.31D-10 DXR=  6.37D-03 DFR=  7.50D-05 which will be used.
 Gradient too large for Newton-Raphson -- use scaled steepest descent instead.
 Gradient too large for Newton-Raphson -- use scaled steepest descent instead.
     Minimum is close to point  2 DX= -1.76D-02 DF= -9.32D-11 DXR=  5.70D-03 DFR=  3.24D-05 which will be used.
 Gradient too large for Newton-Raphson -- use scaled steepest descent instead.
 Gradient too large for Newton-Raphson -- use scaled steepest descent instead.
     Minimum is close to point  2 DX= -1.05D-01 DF= -3.27D-09 DXR=  3.52D-02 DFR=  1.24D-03 which will be used.
 Gradient too large for Newton-Raphson -- use scaled steepest descent instead.
 Gradient too large for Newton-Raphson -- use scaled steepest descent instead.
 Gradient too large for Newton-Raphson -- use scaled steepest descent instead.
 Gradient too large for Newton-Raphson -- use scaled steepest descent instead.
     Minimum is close to point  3 DX= -1.70D-02 DF= -2.30D-09 DXR=  9.32D-02 DFR=  8.75D-03 which will be used.
 Gradient too large for Newton-Raphson -- use scaled steepest descent instead.
     Accept linear search using points  1 and  2.
 LinEq1:  Iter=  0 NonCon=     1 RMS=1.98D-04 Max=5.61D-03 NDo=     1
 AX will form     1 AO Fock derivatives at one time.
 LinEq1:  Iter=  1 NonCon=     1 RMS=7.25D-05 Max=9.22D-04 NDo=     1
 LinEq1:  Iter=  2 NonCon=     1 RMS=2.10D-05 Max=3.33D-04 NDo=     1
 LinEq1:  Iter=  3 NonCon=     1 RMS=6.29D-06 Max=1.10D-04 NDo=     1
 LinEq1:  Iter=  4 NonCon=     1 RMS=3.31D-06 Max=5.77D-05 NDo=     1
 LinEq1:  Iter=  5 NonCon=     1 RMS=8.38D-07 Max=9.80D-06 NDo=     1
 LinEq1:  Iter=  6 NonCon=     1 RMS=3.06D-07 Max=6.04D-06 NDo=     1
 LinEq1:  Iter=  7 NonCon=     1 RMS=1.63D-07 Max=3.22D-06 NDo=     1
 LinEq1:  Iter=  8 NonCon=     1 RMS=5.99D-08 Max=1.36D-06 NDo=     1
 LinEq1:  Iter=  9 NonCon=     0 RMS=4.77D-09 Max=6.07D-08 NDo=     1
 Linear equations converged to 7.344D-09 7.344D-08 after     9 iterations.
     Minimum is close to point  2 DX=  1.37D-03 DF= -1.76D-10 DXR=  1.37D-03 DFR=  1.86D-06 which will be used.
 LinEq1:  Iter=  0 NonCon=     1 RMS=1.22D-06 Max=2.59D-05 NDo=     1
 LinEq1:  Iter=  1 NonCon=     1 RMS=6.30D-07 Max=1.15D-05 NDo=     1
 LinEq1:  Iter=  2 NonCon=     1 RMS=2.47D-07 Max=3.61D-06 NDo=     1
 LinEq1:  Iter=  3 NonCon=     1 RMS=5.68D-08 Max=1.04D-06 NDo=     1
 LinEq1:  Iter=  4 NonCon=     1 RMS=2.46D-08 Max=5.12D-07 NDo=     1
 LinEq1:  Iter=  5 NonCon=     1 RMS=9.03D-09 Max=1.40D-07 NDo=     1
 LinEq1:  Iter=  6 NonCon=     1 RMS=4.13D-09 Max=6.60D-08 NDo=     1
 LinEq1:  Iter=  7 NonCon=     1 RMS=9.62D-10 Max=1.17D-08 NDo=     1
 LinEq1:  Iter=  8 NonCon=     1 RMS=2.43D-10 Max=5.45D-09 NDo=     1
 LinEq1:  Iter=  9 NonCon=     0 RMS=4.92D-11 Max=8.26D-10 NDo=     1
 Linear equations converged to 4.864D-10 4.864D-09 after     9 iterations.
 SCF Done:  E(RB3LYP) =  -3074.34709352     a.u. after  229 cycles
            Convg  =    0.1161D-08                   701 Fock formations.
              S**2 =  0.0000                  -V/T =  2.0012
 Calling FoFJK, ICntrl=      2127 FMM=F ISym2X=0 I1Cent= 0 IOpClX= 0 NMat=1 NMatS=1 NMatT=0.
 ***** Axes restored to original set *****
 -------------------------------------------------------------------
 Center     Atomic                   Forces (Hartrees/Bohr)
 Number     Number              X              Y              Z
 -------------------------------------------------------------------
      1        6           0.007472833    0.005462261   -0.001620219
      2        1           0.003554123    0.002337465   -0.001791043
      3        1           0.003769345    0.002648420    0.000263348
      4        1           0.004261891    0.001538774   -0.000683918
      5       35          -0.069721402   -0.043731753    0.013997364
      6       17           0.050663210    0.031744833   -0.010165533
 -------------------------------------------------------------------
 Cartesian Forces:  Max     0.069721402 RMS     0.024493988

 GradGradGradGradGradGradGradGradGradGradGradGradGradGradGradGradGradGrad
 Berny optimization.
 FormGI is forming the generalized inverse of G from B-inverse, IUseBI=4.
 Internal  Forces:  Max     0.083483330 RMS     0.021559744
 Search for a saddle point.
 Step number   2 out of a maximum of   33
 All quantities printed in internal units (Hartrees-Bohrs-Radians)
 Swapping is turned off.
 Update second derivatives using D2CorX and points    1    2
 ITU=  0  0
     Eigenvalues ---   -0.00269   0.02663   0.02667   0.10404   0.10405
     Eigenvalues ---    0.14709   0.14711   0.15225   0.21404   0.37223
     Eigenvalues ---    0.37438   0.37439
 Eigenvectors required to have negative eigenvalues:
                          D1        R5        R4        A8        A7
   1                    0.66522  -0.41690   0.39651  -0.19318   0.19281
                          A4        A3        A6        A9        A1
   1                    0.19279  -0.19197  -0.19191   0.19148  -0.04927
 RFO step:  Lambda0=1.523471894D-03 Lambda=-4.18857595D-02.
 Linear search not attempted -- option 19 set.
 Maximum step size (   0.300) exceeded in Quadratic search.
    -- Step size scaled by   0.506
 Iteration  1 RMS(Cart)=  0.04147368 RMS(Int)=  0.01192011
 Iteration  2 RMS(Cart)=  0.01004071 RMS(Int)=  0.00235269
 Iteration  3 RMS(Cart)=  0.00000698 RMS(Int)=  0.00235267
 Iteration  4 RMS(Cart)=  0.00000002 RMS(Int)=  0.00235267
 Variable       Old X    -DE/DX   Delta X   Delta X   Delta X     New X
                                 (Linear)    (Quad)   (Total)
    R1        2.01845   0.00077   0.00000  -0.00198  -0.00198   2.01648
    R2        2.01845   0.00078   0.00000  -0.00198  -0.00198   2.01648
    R3        2.01818   0.00075   0.00000  -0.00171  -0.00171   2.01647
    R4        4.05188   0.08348   0.00000   0.03955   0.03955   4.09143
    R5        3.82466   0.06065   0.00000   0.25480   0.25480   4.07945
    A1        2.08454   0.00031   0.00000   0.01677   0.01031   2.09485
    A2        2.09358   0.00022   0.00000   0.00660   0.00006   2.09365
    A3        1.52383   0.00153   0.00000   0.06134   0.06122   1.58505
    A4        1.61803  -0.00153   0.00000  -0.06167  -0.06155   1.55648
    A5        2.09357   0.00022   0.00000   0.00660   0.00007   2.09363
    A6        1.52392   0.00152   0.00000   0.06131   0.06118   1.58510
    A7        1.61809  -0.00153   0.00000  -0.06170  -0.06158   1.55652
    A8        1.52340   0.00153   0.00000   0.06180   0.06167   1.58507
    A9        1.61750  -0.00151   0.00000  -0.06108  -0.06095   1.55656
   A10        3.14186  -0.00000   0.00000  -0.00033  -0.00033   3.14153
   A11        3.14223  -0.00002   0.00000  -0.00064  -0.00064   3.14159
    D1       -2.97836  -0.00526   0.00000  -0.21272  -0.21266   3.09217
    D2       -2.08832  -0.00006   0.00000  -0.00694  -0.00688  -2.09520
    D3        2.08837   0.00006   0.00000   0.00681   0.00683   2.09520
    D4        2.09744  -0.00003   0.00000  -0.00348  -0.00345   2.09400
    D5       -2.09741   0.00003   0.00000   0.00340   0.00341  -2.09400
    D6       -2.09742   0.00003   0.00000   0.00346   0.00344  -2.09399
    D7        2.09740  -0.00003   0.00000  -0.00341  -0.00342   2.09399
         Item               Value     Threshold  Converged?
 Maximum Force            0.083483     0.000450     NO 
 RMS     Force            0.021560     0.000300     NO 
 Maximum Displacement     0.129528     0.001800     NO 
 RMS     Displacement     0.048984     0.001200     NO 
 Predicted change in Energy=-1.607216D-02
 GradGradGradGradGradGradGradGradGradGradGradGradGradGradGradGradGradGrad

                          Input orientation:                          
 ---------------------------------------------------------------------
 Center     Atomic      Atomic             Coordinates (Angstroms)
 Number     Number       Type             X           Y           Z
 ---------------------------------------------------------------------
      1          6           0        3.004094    0.016848    0.216074
      2          1           0        2.632848    0.334450   -0.732583
      3          1           0        2.825194    0.609608    1.085139
      4          1           0        3.592818   -0.870204    0.288061
      5         35           0        1.195574   -1.116808    0.578985
      6         17           0        4.807267    1.147233   -0.145889
 ---------------------------------------------------------------------
                    Distance matrix (angstroms):
                    1          2          3          4          5
     1  C    0.000000
     2  H    1.067073   0.000000
     3  H    1.067074   1.848465   0.000000
     4  H    1.067070   1.847822   1.847816   0.000000
     5  Br   2.165092   2.427368   2.427420   2.427391   0.000000
     6  Cl   2.158754   2.394352   2.394386   2.394421   4.323846
                    6
     6  Cl   0.000000
 Stoichiometry    CH3BrCl(1-)
 Framework group  C1[X(CH3BrCl)]
 Deg. of freedom    12
 Full point group                 C1      NOp   1
 Largest Abelian subgroup         C1      NOp   1
 Largest concise Abelian subgroup C1      NOp   1
                         Standard orientation:                         
 ---------------------------------------------------------------------
 Center     Atomic      Atomic             Coordinates (Angstroms)
 Number     Number       Type             X           Y           Z
 ---------------------------------------------------------------------
      1          6           0       -0.639897   -0.000046    0.000019
      2          1           0       -0.655133    0.926556   -0.528961
      3          1           0       -0.655146   -0.921890   -0.537212
      4          1           0       -0.655115   -0.004816    1.066969
      5         35           0        1.525195    0.000006   -0.000013
      6         17           0       -2.798651    0.000013   -0.000027
 ---------------------------------------------------------------------
 Rotational constants (GHZ):         146.8290125           1.0888842           1.0888804
 Standard basis: 6-311+G(d,p) (5D, 7F)
 There are   123 symmetry adapted cartesian basis functions of A   symmetry.
 There are   118 symmetry adapted basis functions of A   symmetry.
   118 basis functions,   207 primitive gaussians,   123 cartesian basis functions
    31 alpha electrons       31 beta electrons
       nuclear repulsion energy       193.0967830625 Hartrees.
 NAtoms=    6 NActive=    6 NUniq=    6 SFac= 1.00D+00 NAtFMM=   60 NAOKFM=F Big=F
 Integral buffers will be    131072 words long.
 Raffenetti 2 integral format.
 Two-electron integral symmetry is turned on.
 One-electron integrals computed using PRISM.
 NBasis=   118 RedAO= T EigKep=  1.01D-03  NBF=   118
 NBsUse=   118 1.00D-06 EigRej= -1.00D+00 NBFU=   118
 Initial guess from the checkpoint file:  "brch3cl.chk"
 B after Tr=    -0.000000    0.000000   -0.000000
         Rot=    0.708895    0.705314    0.000000    0.000000 Ang=  89.71 deg.
 ExpMin= 3.50D-02 ExpMax= 4.40D+05 ExpMxC= 1.51D+04 IAcc=3 IRadAn=         5 AccDes= 0.00D+00
 Harris functional with IExCor=  402 and IRadAn=       5 diagonalized for initial guess.
 HarFok:  IExCor=  402 AccDes= 0.00D+00 IRadAn=         5 IDoV= 1 UseB2=F ITyADJ=14
 ICtDFT=  3500011 ScaDFX=  1.000000  1.000000  1.000000  1.000000
 FoFCou: FMM=F IPFlag=           0 FMFlag=      100000 FMFlg1=           0
         NFxFlg=           0 DoJE=T BraDBF=F KetDBF=T FulRan=T
         wScrn=  0.000000 ICntrl=       500 IOpCl=  0 I1Cent=   200000004 NGrid=           0
         NMat0=    1 NMatS0=      1 NMatT0=    0 NMatD0=    1 NMtDS0=    0 NMtDT0=    0
 Petite list used in FoFCou.
 Keep R1 ints in memory in canonical form, NReq=28442027.
 Gradient too large for Newton-Raphson -- use scaled steepest descent instead.
 Gradient too large for Newton-Raphson -- use scaled steepest descent instead.
 Gradient too large for Newton-Raphson -- use scaled steepest descent instead.
 Gradient too large for Newton-Raphson -- use scaled steepest descent instead.
     Accept linear search using points  1 and  2.
 Gradient too large for Newton-Raphson -- use scaled steepest descent instead.
     Accept linear search using points  4 and  5.
 Gradient too large for Newton-Raphson -- use scaled steepest descent instead.
 Gradient too large for Newton-Raphson -- use scaled steepest descent instead.
 Gradient too large for Newton-Raphson -- use scaled steepest descent instead.
 Gradient too large for Newton-Raphson -- use scaled steepest descent instead.
 Gradient too large for Newton-Raphson -- use scaled steepest descent instead.
     Accept linear search using points  1 and  2.
 Gradient too large for Newton-Raphson -- use scaled steepest descent instead.
 Gradient too large for Newton-Raphson -- use scaled steepest descent instead.
     Minimum is close to point  4 DX=  2.29D-03 DF= -1.76D-08 DXR=  2.37D-02 DFR=  5.64D-04 which will be used.
 Gradient too large for Newton-Raphson -- use scaled steepest descent instead.
 Gradient too large for Newton-Raphson -- use scaled steepest descent instead.
     Minimum is close to point  4 DX= -5.96D-03 DF= -1.41D-07 DXR=  6.46D-02 DFR=  4.19D-03 which will be used.
 Gradient too large for Newton-Raphson -- use scaled steepest descent instead.
     Accept linear search using points  1 and  2.
 Gradient too large for Newton-Raphson -- use scaled steepest descent instead.
 Gradient too large for Newton-Raphson -- use scaled steepest descent instead.
     Minimum is close to point  2 DX= -4.93D-04 DF= -5.23D-11 DXR=  1.65D-03 DFR=  2.74D-06 which will be used.
 Gradient too large for Newton-Raphson -- use scaled steepest descent instead.
     Minimum is close to point  3 DX=  7.38D-03 DF= -8.78D-08 DXR=  6.87D-02 DFR=  4.74D-03 which will be used.
 Gradient too large for Newton-Raphson -- use scaled steepest descent instead.
     Accept linear search using points  2 and  3.
 Gradient too large for Newton-Raphson -- use scaled steepest descent instead.
     Minimum is close to point  3 DX= -2.27D-03 DF= -1.19D-08 DXR=  2.33D-02 DFR=  5.42D-04 which will be used.
 Gradient too large for Newton-Raphson -- use scaled steepest descent instead.
     Accept linear search using points  1 and  2.
 Gradient too large for Newton-Raphson -- use scaled steepest descent instead.
     Accept linear search using points  1 and  2.
 Gradient too large for Newton-Raphson -- use scaled steepest descent instead.
 Gradient too large for Newton-Raphson -- use scaled steepest descent instead.
 Gradient too large for Newton-Raphson -- use scaled steepest descent instead.
 Gradient too large for Newton-Raphson -- use scaled steepest descent instead.
 Gradient too large for Newton-Raphson -- use scaled steepest descent instead.
 Gradient too large for Newton-Raphson -- use scaled steepest descent instead.
 Gradient too large for Newton-Raphson -- use scaled steepest descent instead.
 Gradient too large for Newton-Raphson -- use scaled steepest descent instead.
 Gradient too large for Newton-Raphson -- use scaled steepest descent instead.
 Gradient too large for Newton-Raphson -- use scaled steepest descent instead.
 Gradient too large for Newton-Raphson -- use scaled steepest descent instead.
 Gradient too large for Newton-Raphson -- use scaled steepest descent instead.
     Accept linear search using points  1 and  2.
 Gradient too large for Newton-Raphson -- use scaled steepest descent instead.
 Gradient too large for Newton-Raphson -- use scaled steepest descent instead.
 Gradient too large for Newton-Raphson -- use scaled steepest descent instead.
     Accept linear search using points  1 and  2.
 Gradient too large for Newton-Raphson -- use scaled steepest descent instead.
 Gradient too large for Newton-Raphson -- use scaled steepest descent instead.
     Accept linear search using points  1 and  2.
 Gradient too large for Newton-Raphson -- use scaled steepest descent instead.
 Gradient too large for Newton-Raphson -- use scaled steepest descent instead.
     Accept linear search using points  1 and  2.
 Gradient too large for Newton-Raphson -- use scaled steepest descent instead.
 Gradient too large for Newton-Raphson -- use scaled steepest descent instead.
     Accept linear search using points  1 and  2.
 Gradient too large for Newton-Raphson -- use scaled steepest descent instead.
     Minimum is close to point  3 DX= -2.59D-02 DF= -4.08D-08 DXR=  9.46D-02 DFR=  9.03D-03 which will be used.
 Gradient too large for Newton-Raphson -- use scaled steepest descent instead.
     Minimum is close to point  3 DX=  3.58D-03 DF= -6.10D-09 DXR=  3.46D-02 DFR=  1.20D-03 which will be used.
 Gradient too large for Newton-Raphson -- use scaled steepest descent instead.
     Accept linear search using points  2 and  3.
 Gradient too large for Newton-Raphson -- use scaled steepest descent instead.
     Minimum is close to point  3 DX= -3.82D-05 DF=  0.00D+00 DXR=  3.82D-04 DFR=  0.00D+00 which will be used.
 Gradient too large for Newton-Raphson -- use scaled steepest descent instead.
     Accept linear search using points  1 and  2.
 Gradient too large for Newton-Raphson -- use scaled steepest descent instead.
     Accept linear search using points  1 and  2.
 Gradient too large for Newton-Raphson -- use scaled steepest descent instead.
 Gradient too large for Newton-Raphson -- use scaled steepest descent instead.
 Gradient too large for Newton-Raphson -- use scaled steepest descent instead.
     Minimum is close to point  2 DX= -6.89D-02 DF= -4.70D-09 DXR=  7.71D-03 DFR=  5.94D-05 which will be used.
 Gradient too large for Newton-Raphson -- use scaled steepest descent instead.
 Gradient too large for Newton-Raphson -- use scaled steepest descent instead.
 Gradient too large for Newton-Raphson -- use scaled steepest descent instead.
 Gradient too large for Newton-Raphson -- use scaled steepest descent instead.
     Minimum is close to point  6 DX= -3.28D-03 DF= -1.01D-09 DXR=  1.67D-02 DFR=  2.78D-04 which will be used.
 Gradient too large for Newton-Raphson -- use scaled steepest descent instead.
 Gradient too large for Newton-Raphson -- use scaled steepest descent instead.
     Accept linear search using points  1 and  2.
 Gradient too large for Newton-Raphson -- use scaled steepest descent instead.
     Accept linear search using points  5 and  6.
     Minimum is close to point  6 DX= -1.84D-02 DF= -1.30D-09 DXR=  6.37D-03 DFR=  7.65D-05 which will be used.
 Gradient too large for Newton-Raphson -- use scaled steepest descent instead.
 Gradient too large for Newton-Raphson -- use scaled steepest descent instead.
 Gradient too large for Newton-Raphson -- use scaled steepest descent instead.
 Gradient too large for Newton-Raphson -- use scaled steepest descent instead.
 Gradient too large for Newton-Raphson -- use scaled steepest descent instead.
     Accept linear search using points  1 and  2.
 Gradient too large for Newton-Raphson -- use scaled steepest descent instead.
     Accept linear search using points  4 and  5.
     Minimum is close to point  5 DX= -6.98D-02 DF= -1.20D-08 DXR=  4.56D-02 DFR=  1.38D-03 which will be used.
 Gradient too large for Newton-Raphson -- use scaled steepest descent instead.
 Gradient too large for Newton-Raphson -- use scaled steepest descent instead.
     Accept linear search using points  1 and  2.
 Gradient too large for Newton-Raphson -- use scaled steepest descent instead.
 Gradient too large for Newton-Raphson -- use scaled steepest descent instead.
 Gradient too large for Newton-Raphson -- use scaled steepest descent instead.
 Gradient too large for Newton-Raphson -- use scaled steepest descent instead.
     Accept linear search using points  1 and  2.
 Gradient too large for Newton-Raphson -- use scaled steepest descent instead.
     Accept linear search using points  2 and  3.
 Gradient too large for Newton-Raphson -- use scaled steepest descent instead.
     Minimum is close to point  2 DX= -1.23D-02 DF= -6.79D-09 DXR=  6.57D-02 DFR=  4.34D-03 which will be used.
 Gradient too large for Newton-Raphson -- use scaled steepest descent instead.
     Accept linear search using points  1 and  2.
 Gradient too large for Newton-Raphson -- use scaled steepest descent instead.
     Accept linear search using points  4 and  5.
 Gradient too large for Newton-Raphson -- use scaled steepest descent instead.
 Gradient too large for Newton-Raphson -- use scaled steepest descent instead.
     Accept linear search using points  1 and  2.
     Minimum is close to point  2 DX= -2.99D-02 DF= -5.16D-09 DXR=  2.56D-02 DFR=  8.89D-04 which will be used.
 Gradient too large for Newton-Raphson -- use scaled steepest descent instead.
 Gradient too large for Newton-Raphson -- use scaled steepest descent instead.
     Minimum is close to point  2 DX=  4.95D-02 DF= -9.56D-09 DXR=  3.96D-02 DFR=  1.57D-03 which will be used.
 Gradient too large for Newton-Raphson -- use scaled steepest descent instead.
 Gradient too large for Newton-Raphson -- use scaled steepest descent instead.
     Accept linear search using points  1 and  2.
     Minimum is close to point  2 DX= -3.03D-02 DF= -5.01D-09 DXR=  2.59D-02 DFR=  9.12D-04 which will be used.
 Gradient too large for Newton-Raphson -- use scaled steepest descent instead.
 Gradient too large for Newton-Raphson -- use scaled steepest descent instead.
     Minimum is close to point  2 DX=  4.48D-02 DF= -7.47D-09 DXR=  3.60D-02 DFR=  1.30D-03 which will be used.
 Gradient too large for Newton-Raphson -- use scaled steepest descent instead.
 Gradient too large for Newton-Raphson -- use scaled steepest descent instead.
     Accept linear search using points  1 and  2.
     Minimum is close to point  2 DX= -5.40D-02 DF= -1.51D-08 DXR=  4.71D-02 DFR=  2.98D-03 which will be used.
 Gradient too large for Newton-Raphson -- use scaled steepest descent instead.
 Gradient too large for Newton-Raphson -- use scaled steepest descent instead.
     Accept linear search using points  1 and  2.
 Gradient too large for Newton-Raphson -- use scaled steepest descent instead.
     Minimum is close to point  3 DX=  2.86D-08 DF=  0.00D+00 DXR=  3.20D-07 DFR=  0.00D+00 which will be used.
 Gradient too large for Newton-Raphson -- use scaled steepest descent instead.
[...]
 Red. masses --      4.2023                 1.0112                 1.0112
 Frc consts  --      0.0735                 0.4524                 0.4524
 IR Inten    --     10.8709                 0.0011                 0.0010
  Atom  AN      X      Y      Z        X      Y      Z        X      Y      Z
     1   6     0.00   0.49  -0.00    -0.00   0.00   0.01     0.00   0.01  -0.00
     2   1    -0.00   0.50  -0.00    -0.40  -0.00  -0.02     0.71  -0.02  -0.00
     3   1     0.00   0.50  -0.00    -0.42   0.00  -0.02    -0.70  -0.02   0.00
     4   1     0.00   0.50  -0.00     0.82  -0.00  -0.01    -0.01  -0.02   0.00
     5  35    -0.00  -0.05   0.00     0.00  -0.00  -0.00    -0.00  -0.00   0.00
     6  17     0.00  -0.11   0.00     0.00   0.00   0.01    -0.00   0.01  -0.00
                      7                      8                      9
                      A                      A                      A
 Frequencies --    996.6295              1402.2594              1402.3220
 Red. masses --      1.0377                 1.1030                 1.1031
 Frc consts  --      0.6073                 1.2779                 1.2780
 IR Inten    --    165.8762                 4.8763                 4.8737
  Atom  AN      X      Y      Z        X      Y      Z        X      Y      Z
     1   6    -0.03  -0.00   0.00    -0.00  -0.09  -0.00     0.00   0.00  -0.09
     2   1     0.58  -0.01   0.01     0.02   0.14   0.38    -0.01   0.38   0.59
     3   1     0.58   0.01   0.01    -0.02   0.14  -0.38    -0.01  -0.39   0.59
     4   1     0.58   0.00  -0.01     0.00   0.81   0.00     0.03   0.00  -0.08
     5  35    -0.01  -0.00  -0.00     0.00   0.00   0.00    -0.00  -0.00   0.00
     6  17    -0.02   0.00   0.00    -0.00   0.00   0.00     0.00  -0.00   0.00
                     10                     11                     12
                      A                      A                      A
 Frequencies --   3188.9346              3386.9951              3387.0195
 Red. masses --      1.0079                 1.1226                 1.1226
 Frc consts  --      6.0391                 7.5877                 7.5879
 IR Inten    --      0.2773                 4.4646                 4.4698
  Atom  AN      X      Y      Z        X      Y      Z        X      Y      Z
     1   6    -0.00   0.00  -0.00     0.00  -0.00  -0.10    -0.00  -0.10   0.00
     2   1     0.01   0.50  -0.29    -0.01  -0.35   0.19     0.02   0.61  -0.36
     3   1     0.01  -0.50  -0.29    -0.01   0.37   0.20    -0.02   0.60   0.36
     4   1     0.01  -0.00   0.58     0.02  -0.00   0.81    -0.00  -0.01  -0.01
     5  35     0.00  -0.00  -0.00    -0.00   0.00   0.00    -0.00   0.00  -0.00
     6  17    -0.00  -0.00  -0.00    -0.00   0.00   0.00     0.00   0.00  -0.00

 -------------------
 - Thermochemistry -
 -------------------
 Temperature   298.150 Kelvin.  Pressure   1.00000 Atm.
 Atom     1 has atomic number  6 and mass  12.00000
 Atom     2 has atomic number  1 and mass   1.00783
 Atom     3 has atomic number  1 and mass   1.00783
 Atom     4 has atomic number  1 and mass   1.00783
 Atom     5 has atomic number 35 and mass  78.91834
 Atom     6 has atomic number 17 and mass  34.96885
 Molecular mass:   128.91066 amu.
 Principal axes and moments of inertia in atomic units:
                           1         2         3
     Eigenvalues --    12.397112125.008372125.00869
           X            1.00000   0.00000   0.00000
           Y           -0.00000   1.00000  -0.00001
           Z           -0.00000   0.00001   1.00000
 This molecule is an asymmetric top.
 Rotational symmetry number  1.
 Rotational temperatures (Kelvin)      6.98662     0.04076     0.04076
 Rotational constants (GHZ):         145.57763     0.84929     0.84929
    1 imaginary frequencies ignored.
 Zero-point vibrational energy      95808.1 (Joules/Mol)
                                   22.89869 (Kcal/Mol)
 Warning -- explicit consideration of   3 degrees of freedom as
           vibrations may cause significant error
 Vibrational temperatures:    239.79   247.49   247.85  1253.69  1253.76
          (Kelvin)           1433.93  2017.54  2017.63  4588.17  4873.13
                             4873.17
 
 Zero-point correction=                           0.036491 (Hartree/Particle)
 Thermal correction to Energy=                    0.041323
 Thermal correction to Enthalpy=                  0.042267
 Thermal correction to Gibbs Free Energy=         0.007228
 Sum of electronic and zero-point Energies=          -3074.350470
 Sum of electronic and thermal Energies=             -3074.345639
 Sum of electronic and thermal Enthalpies=           -3074.344695
 Sum of electronic and thermal Free Energies=        -3074.379733
 
                     E (Thermal)             CV                S
                      KCal/Mol        Cal/Mol-Kelvin    Cal/Mol-Kelvin
 Total                   25.930             13.270             73.744
 Electronic               0.000              0.000              0.000
 Translational            0.889              2.981             40.475
 Rotational               0.889              2.981             25.529
 Vibrational             24.153              7.309              7.740
 Vibration     1          0.624              1.883              2.473
 Vibration     2          0.626              1.877              2.413
 Vibration     3          0.626              1.877              2.411
                       Q            Log10(Q)             Ln(Q)
 Total Bot       0.473334D-03         -3.324832         -7.655709
 Total V=0       0.288420D+14         13.460026         30.992855
 Vib (Bot)       0.971436D-16        -16.012586        -36.870342
 Vib (Bot)    1  0.121047D+01          0.082955          0.191011
 Vib (Bot)    2  0.117078D+01          0.068477          0.157674
 Vib (Bot)    3  0.116902D+01          0.067821          0.156163
 Vib (V=0)       0.591933D+01          0.772272          1.778223
 Vib (V=0)    1  0.180967D+01          0.257600          0.593146
 Vib (V=0)    2  0.177308D+01          0.248729          0.572719
 Vib (V=0)    3  0.177146D+01          0.248330          0.571802
 Electronic      0.100000D+01          0.000000          0.000000
 Translational   0.575290D+08          7.759887         17.867800
 Rotational      0.846967D+05          4.927866         11.346832
 ***** Axes restored to original set *****
 -------------------------------------------------------------------
 Center     Atomic                   Forces (Hartrees/Bohr)
 Number     Number              X              Y              Z
 -------------------------------------------------------------------
      1        6           0.000048631    0.000035565   -0.000010477
      2        1          -0.000088303   -0.000051628    0.000013370
      3        1          -0.000087505   -0.000050511    0.000020721
      4        1          -0.000079499   -0.000062769    0.000017911
      5       35           0.000124276    0.000076910   -0.000024839
      6       17           0.000082400    0.000052433   -0.000016686
 -------------------------------------------------------------------
 Cartesian Forces:  Max     0.000124276 RMS     0.000061189
 FormGI is forming the generalized inverse of G from B-inverse, IUseBI=4.

 GradGradGradGradGradGradGradGradGradGradGradGradGradGradGradGradGradGrad
 Berny optimization.
 Internal  Forces:  Max     0.000148243 RMS     0.000048302
 Search for a saddle point.
 Step number   1 out of a maximum of    2
 All quantities printed in internal units (Hartrees-Bohrs-Radians)
 Swapping is turned off.
 Second derivative matrix not updated -- analytic derivatives used.
 ITU=  0
     Eigenvalues ---   -0.01062   0.03047   0.03049   0.04420   0.04433
     Eigenvalues ---    0.04746   0.05238   0.05976   0.05977   0.38790
     Eigenvalues ---    0.38989   0.38989
 Eigenvectors required to have negative eigenvalues:
                          R5        R4        D1        A4        A7
   1                   -0.56343   0.54278   0.50774   0.14701   0.14701
                          A3        A6        A8        A9        A5
   1                   -0.14697  -0.14697  -0.14692   0.14684   0.01411
 Angle between quadratic step and forces=  52.77 degrees.
 Linear search not attempted -- option 19 set.
 Iteration  1 RMS(Cart)=  0.00073277 RMS(Int)=  0.00000158
 Iteration  2 RMS(Cart)=  0.00000080 RMS(Int)=  0.00000136
 Variable       Old X    -DE/DX   Delta X   Delta X   Delta X     New X
                                 (Linear)    (Quad)   (Total)
    R1        2.02562   0.00000   0.00000  -0.00001  -0.00001   2.02561
    R2        2.02562   0.00000   0.00000  -0.00001  -0.00001   2.02561
    R3        2.02563   0.00001   0.00000   0.00000   0.00000   2.02563
    R4        4.67343  -0.00015   0.00000  -0.00018  -0.00018   4.67324
    R5        4.57737   0.00010   0.00000  -0.00068  -0.00068   4.57669
    A1        2.09323   0.00000   0.00000   0.00012   0.00012   2.09335
    A2        2.09316   0.00000   0.00000   0.00014   0.00014   2.09330
    A3        1.59719  -0.00003   0.00000  -0.00148  -0.00148   1.59571
    A4        1.54431   0.00003   0.00000   0.00148   0.00148   1.54578
    A5        2.09316   0.00000   0.00000   0.00014   0.00014   2.09330
    A6        1.59719  -0.00003   0.00000  -0.00147  -0.00147   1.59571
    A7        1.54431   0.00003   0.00000   0.00148   0.00148   1.54578
    A8        1.59731  -0.00003   0.00000  -0.00147  -0.00147   1.59583
    A9        1.54448   0.00003   0.00000   0.00147   0.00147   1.54596
   A10        3.14149   0.00000   0.00000  -0.00000  -0.00000   3.14149
   A11        3.14142   0.00000   0.00000   0.00000   0.00000   3.14142
    D1        3.05011   0.00012   0.00000   0.00509   0.00510   3.05521
    D2       -2.09444   0.00000   0.00000   0.00001   0.00001  -2.09443
    D3        2.09445  -0.00000   0.00000  -0.00001  -0.00001   2.09444
    D4        2.09437   0.00000   0.00000   0.00001   0.00001   2.09438
    D5       -2.09437  -0.00000   0.00000  -0.00001  -0.00001  -2.09438
    D6       -2.09437  -0.00000   0.00000  -0.00001  -0.00001  -2.09438
    D7        2.09437   0.00000   0.00000   0.00001   0.00001   2.09437
         Item               Value     Threshold  Converged?
 Maximum Force            0.000148     0.000450     YES
 RMS     Force            0.000048     0.000300     YES
 Maximum Displacement     0.001470     0.001800     YES
 RMS     Displacement     0.000733     0.001200     YES
 Predicted change in Energy=-4.407599D-07
 Optimization completed.
    -- Stationary point found.
                           ----------------------------
                           !   Optimized Parameters   !
                           ! (Angstroms and Degrees)  !
 --------------------------                            --------------------------
 ! Name  Definition              Value          Derivative Info.                !
 --------------------------------------------------------------------------------
 ! R1    R(1,2)                  1.0719         -DE/DX =    0.0                 !
 ! R2    R(1,3)                  1.0719         -DE/DX =    0.0                 !
 ! R3    R(1,4)                  1.0719         -DE/DX =    0.0                 !
 ! R4    R(1,5)                  2.4731         -DE/DX =   -0.0001              !
 ! R5    R(1,6)                  2.4222         -DE/DX =    0.0001              !
 ! A1    A(2,1,3)              119.9334         -DE/DX =    0.0                 !
 ! A2    A(2,1,4)              119.9294         -DE/DX =    0.0                 !
 ! A3    A(2,1,5)               91.512          -DE/DX =    0.0                 !
 ! A4    A(2,1,6)               88.4823         -DE/DX =    0.0                 !
 ! A5    A(3,1,4)              119.9294         -DE/DX =    0.0                 !
 ! A6    A(3,1,5)               91.512          -DE/DX =    0.0                 !
 ! A7    A(3,1,6)               88.4823         -DE/DX =    0.0                 !
 ! A8    A(4,1,5)               91.519          -DE/DX =    0.0                 !
 ! A9    A(4,1,6)               88.4924         -DE/DX =    0.0                 !
 ! A10   L(5,1,6,2,-1)         179.9943         -DE/DX =    0.0                 !
 ! A11   L(5,1,6,2,-2)         179.9901         -DE/DX =    0.0                 !
 ! D1    D(2,1,4,3)            174.7586         -DE/DX =    0.0001              !
 ! D2    D(2,1,5,3)           -120.0025         -DE/DX =    0.0                 !
 ! D3    D(2,1,6,3)            120.003          -DE/DX =    0.0                 !
 ! D4    D(2,1,5,4)            119.9988         -DE/DX =    0.0                 !
 ! D5    D(2,1,6,4)           -119.9985         -DE/DX =    0.0                 !
 ! D6    D(3,1,5,4)           -119.9988         -DE/DX =    0.0                 !
 ! D7    D(3,1,6,4)            119.9985         -DE/DX =    0.0                 !
 --------------------------------------------------------------------------------
 GradGradGradGradGradGradGradGradGradGradGradGradGradGradGradGradGradGrad


 ----------------------------------------------------------------------

 Electric dipole moment (input orientation):
 (Debye = 10**-18 statcoulomb cm , SI units = C m)
                  (au)            (Debye)         (10**-30 SI)
   Tot        0.152028D+01      0.386417D+01      0.128895D+02
   x         -0.126978D+01     -0.322745D+01     -0.107656D+02
   y         -0.796214D+00     -0.202377D+01     -0.675058D+01
   z          0.254882D+00      0.647846D+00      0.216098D+01

 Dipole polarizability, Alpha (input orientation).
 (esu units = cm**3 , SI units = C**2 m**2 J**-1)
 Alpha(0;0):
               (au)            (10**-24 esu)      (10**-40 SI)
   iso        0.795397D+02      0.117866D+02      0.131143D+02
   aniso      0.106306D+03      0.157529D+02      0.175275D+02
   xx         0.118276D+03      0.175268D+02      0.195012D+02
   yx         0.464950D+02      0.688985D+01      0.766600D+01
   yy         0.732515D+02      0.108548D+02      0.120775D+02
   zx        -0.148865D+02     -0.220595D+01     -0.245445D+01
   zy        -0.933199D+01     -0.138286D+01     -0.153864D+01
   zz         0.470911D+02      0.697818D+01      0.776428D+01

 ----------------------------------------------------------------------

 Dipole orientation:
     6          2.61460058         -1.88879738         -4.69136316
     1          0.60135682         -2.10584634         -4.74503717
     1          3.43335189         -0.03679659         -4.74503824
     1          3.80915816         -3.52383819         -4.74460638
    35          2.61398864         -1.88795375         -0.01793807
    17          2.61466531         -1.88888639         -9.26873227

 Electric dipole moment (dipole orientation):
 (Debye = 10**-18 statcoulomb cm , SI units = C m)
                  (au)            (Debye)         (10**-30 SI)
   Tot        0.152028D+01      0.386417D+01      0.128895D+02
   x          0.000000D+00      0.000000D+00      0.000000D+00
   y          0.000000D+00      0.000000D+00      0.000000D+00
   z          0.152028D+01      0.386417D+01      0.128895D+02

 Dipole polarizability, Alpha (dipole orientation).
 (esu units = cm**3 , SI units = C**2 m**2 J**-1)
 Alpha(0;0):
               (au)            (10**-24 esu)      (10**-40 SI)
   iso        0.795397D+02      0.117866D+02      0.131143D+02
   aniso      0.106306D+03      0.157529D+02      0.175275D+02
   xx         0.441041D+02      0.653555D+01      0.727178D+01
   yx        -0.105398D-02     -0.156184D-03     -0.173778D-03
   yy         0.441048D+02      0.653565D+01      0.727189D+01
   zx        -0.824253D-02     -0.122142D-02     -0.135901D-02
   zy         0.113613D-01      0.168357D-02      0.187323D-02
   zz         0.150410D+03      0.222885D+02      0.247993D+02

 ----------------------------------------------------------------------
 1\1\GINC-CN209\Freq\RB3LYP\6-311+G(d,p)\C1H3Br1Cl1(1-)\21CY91R08\14-No
 v-2021\0\\#N Geom=AllCheck Guess=TCheck SCRF=Check GenChk RB3LYP/6-311
 +G(d,p) Freq\\BrCH3Cl_6311G_dp\\-1,1\C,3.0049176176,0.0171461069,0.215
 9234687\H,2.6427942719,0.3432546881,-0.7388102854\H,2.8359123889,0.619
 5297248,1.0863072336\H,3.6070566505,-0.8668877107,0.2860299989\Br,0.93
 90493935,-1.2776061866,0.630508511\Cl,5.0280646475,1.2856909975,-0.190
 1722969\\Version=EM64L-G16RevB.01\State=1-A\HF=-3074.3869612\RMSD=1.31
 7e-12\RMSF=6.119e-05\ZeroPoint=0.0364914\Thermal=0.0413225\Dipole=-1.2
 697783,-0.796214,0.2548824\DipoleDeriv=2.4411848,1.5048795,-0.4818224,
 1.5048858,0.9838913,-0.3020434,-0.4818233,-0.3020426,0.1371753,-0.1329
 916,-0.1239474,0.0339918,-0.1175183,-0.002593,0.0227919,0.0220532,0.01
 65999,0.0610814,-0.1283922,-0.1208718,0.0445502,-0.1126387,-0.0006251,
 0.0218272,0.0542694,0.0295704,0.0545141,-0.1145698,-0.1170121,0.037312
 1,-0.131657,-0.0223226,0.0280061,0.0395289,0.0264565,0.0624736,-1.4840
 684,-0.5526484,0.1769426,-0.5525337,-0.9487941,0.1108929,0.1769257,0.1
 109053,-0.6379522,-1.5811627,-0.5903999,0.1890257,-0.5905381,-1.009556
 6,0.1185253,0.1890462,0.1185104,-0.6772922\Polar=118.2764836,46.495033
 5,73.2515443,-14.8865032,-9.3319881,47.0911094\Quadrupole=-11.851232,1
 .9235836,9.9276484,-14.2258776,4.5546061,2.8552427\PG=C01 [X(C1H3Br1Cl
 1)]\NImag=1\\0.18047856,-0.31006291,0.48075582,0.09927766,0.06223480,0
 .65522782,-0.05948258,0.05325326,-0.10401945,0.07511159,0.05390326,-0.
 07206078,0.08514365,-0.04125897,0.07293238,-0.10522855,0.08451815,-0.3
 1258674,0.10570849,-0.09173926,0.31725950,-0.03037241,0.04842059,0.034
 76966,0.00428263,-0.00575466,-0.00768603,0.04425981,0.04925368,-0.1452
 0330,-0.15382316,-0.00126894,0.00799342,0.00925055,-0.03654171,0.14957
 076,0.03575423,-0.15304077,-0.26855433,0.00535267,-0.01448992,-0.01124
 744,-0.04249971,0.15793817,0.27147237,-0.12589790,0.17242418,-0.018512
 77,-0.00092263,0.00561930,0.00207780,0.00133892,0.00096330,-0.00211887
 ,0.14362482,0.17094068,-0.26394140,0.01366379,0.00230231,-0.00145545,-
 0.00285676,0.00694629,-0.00610123,0.00445185,-0.16499964,0.27561566,-0
 .01828822,0.01350686,-0.05429713,-0.01313339,0.01975772,0.00341201,0.0
 1268880,-0.01788060,0.00579625,0.01453517,-0.01745899,0.04604888,0.016
 84519,0.01777703,-0.00569207,-0.00842381,-0.00462159,0.00054314,-0.009
 29908,-0.00466642,0.00316150,-0.01098794,-0.01117564,0.00284609,0.0252
 9618,0.01776927,-0.00037696,-0.00356655,-0.00860369,-0.00434285,-0.000
 36910,-0.00976633,-0.00427873,0.00422360,-0.00208887,-0.00025175,0.000
 24746,0.01211555,0.01355216,-0.00569084,-0.00356737,-0.01037518,0.0079
 4209,0.00347000,0.00110692,-0.00286277,-0.00057651,0.00191824,0.001470
 63,0.00120896,-0.00041590,-0.00387723,-0.00242741,0.00676344,0.0184291
 2,0.01818785,-0.00582302,-0.01056521,-0.00788733,0.00458515,-0.0102098
 7,-0.00773992,0.00035019,-0.00715527,-0.00401401,0.00135155,-0.0134305
 4,-0.00942592,0.00301812,0.02293178,0.01819602,0.00082662,-0.00365253,
 -0.00442396,-0.00306671,0.00119643,-0.00330418,-0.00198092,0.00091707,
 -0.01191827,-0.00386583,0.00182754,-0.00942894,-0.00430187,0.00189233,
 0.01087933,0.01238870,-0.00582428,-0.00365168,-0.00941444,-0.00185040,
 -0.00214219,0.00205575,0.00559006,0.00509156,0.00061491,0.00254804,0.0
 0099115,-0.00054412,0.00301857,0.00189201,0.00100248,-0.00348199,-0.00
 218084,0.00628542\\-0.00004863,-0.00003557,0.00001048,0.00008830,0.000
 05163,-0.00001337,0.00008750,0.00005051,-0.00002072,0.00007950,0.00006
 277,-0.00001791,-0.00012428,-0.00007691,0.00002484,-0.00008240,-0.0000
 5243,0.00001669\\\@


      LET US REMEMBER, PLEASE, THAT THE SEARCH FOR THE CONSTITUTION
      OF THE WORLD IS ONE OF THE GREATEST AND NOBLEST PROBLEMS PRESENTED 
      BY NATURE.

                                                  -- GALILEO
 Job cpu time:       0 days  0 hours  1 minutes 48.3 seconds.
 Elapsed time:       0 days  0 hours  0 minutes 27.4 seconds.
 File lengths (MBytes):  RWF=     16 Int=      0 D2E=      0 Chk=      2 Scr=      1
 Normal termination of Gaussian 16 at Sun Nov 14 01:59:31 2021.
