 Entering Gaussian System, Link 0=g16
 Input=ch3br.gjf
 Output=ch3br.log
 Initial command:
 /home/apps/g16/l1.exe "./Gau-386172.inp" -scrdir="./"
 Entering Link 1 = /home/apps/g16/l1.exe PID=    386173.
  
 Copyright (c) 1988-2017, Gaussian, Inc.  All Rights Reserved.
  
 This is part of the Gaussian(R) 16 program.  It is based on
 the Gaussian(R) 09 system (copyright 2009, Gaussian, Inc.),
 the Gaussian(R) 03 system (copyright 2003, Gaussian, Inc.),
 the Gaussian(R) 98 system (copyright 1998, Gaussian, Inc.),
 the Gaussian(R) 94 system (copyright 1995, Gaussian, Inc.),
 the Gaussian 92(TM) system (copyright 1992, Gaussian, Inc.),
 the Gaussian 90(TM) system (copyright 1990, Gaussian, Inc.),
 the Gaussian 88(TM) system (copyright 1988, Gaussian, Inc.),
 the Gaussian 86(TM) system (copyright 1986, Carnegie Mellon
 University), and the Gaussian 82(TM) system (copyright 1983,
 Carnegie Mellon University). Gaussian is a federally registered
 trademark of Gaussian, Inc.
  
 This software contains proprietary and confidential information,
 including trade secrets, belonging to Gaussian, Inc.
  
 This software is provided under written license and may be
 used, copied, transmitted, or stored only in accord with that
 written license.
  
 The following legend is applicable only to US Government
 contracts under FAR:
  
                    RESTRICTED RIGHTS LEGEND
  
 Use, reproduction and disclosure by the US Government is
 subject to restrictions as set forth in subparagraphs (a)
 and (c) of the Commercial Computer Software - Restricted
 Rights clause in FAR 52.227-19.
  
 Gaussian, Inc.
 340 Quinnipiac St., Bldg. 40, Wallingford CT 06492
  
  
 ---------------------------------------------------------------
 Warning -- This program may not be used in any manner that
 competes with the business of Gaussian, Inc. or will provide
 assistance to any competitor of Gaussian, Inc.  The licensee
 of this program is prohibited from giving any competitor of
 Gaussian, Inc. access to this program.  By using this program,
 the user acknowledges that Gaussian, Inc. is engaged in the
 business of creating and licensing software in the field of
 computational chemistry and represents and warrants to the
 licensee that it is not a competitor of Gaussian, Inc. and that
 it will not use this program in any manner prohibited above.
 ---------------------------------------------------------------
  

 Cite this work as:
 Gaussian 16, Revision B.01,
 M. J. Frisch, G. W. Trucks, H. B. Schlegel, G. E. Scuseria, 
 M. A. Robb, J. R. Cheeseman, G. Scalmani, V. Barone, 
 G. A. Petersson, H. Nakatsuji, X. Li, M. Caricato, A. V. Marenich, 
 J. Bloino, B. G. Janesko, R. Gomperts, B. Mennucci, H. P. Hratchian, 
 J. V. Ortiz, A. F. Izmaylov, J. L. Sonnenberg, D. Williams-Young, 
 F. Ding, F. Lipparini, F. Egidi, J. Goings, B. Peng, A. Petrone, 
 T. Henderson, D. Ranasinghe, V. G. Zakrzewski, J. Gao, N. Rega, 
 G. Zheng, W. Liang, M. Hada, M. Ehara, K. Toyota, R. Fukuda, 
 J. Hasegawa, M. Ishida, T. Nakajima, Y. Honda, O. Kitao, H. Nakai, 
 T. Vreven, K. Throssell, J. A. Montgomery, Jr., J. E. Peralta, 
 F. Ogliaro, M. J. Bearpark, J. J. Heyd, E. N. Brothers, K. N. Kudin, 
 V. N. Staroverov, T. A. Keith, R. Kobayashi, J. Normand, 
 K. Raghavachari, A. P. Rendell, J. C. Burant, S. S. Iyengar, 
 J. Tomasi, M. Cossi, J. M. Millam, M. Klene, C. Adamo, R. Cammi, 
 J. W. Ochterski, R. L. Martin, K. Morokuma, O. Farkas, 
 J. B. Foresman, and D. J. Fox, Gaussian, Inc., Wallingford CT, 2016.
 
 ******************************************
 Gaussian 16:  EM64L-G16RevB.01 20-Dec-2017
                14-Nov-2021 
 ******************************************
 %nprocshared=2
 Will use up to    2 processors via shared memory.
 %mem=4GB
 %chk=ch3br.chk
 %nosave
 ----------------------------------------------------------
 # opt=maxcycles=2048 freq=noraman b3lyp/6-311g(d,p) scf=qc
 ----------------------------------------------------------
 1/6=2048,18=20,19=15,26=3,38=1/1,3;
 2/9=110,12=2,17=6,18=5,40=1/2;
 3/5=4,6=6,7=101,11=2,25=1,30=1,71=1,74=-5/1,2,3;
 4//1;
 5/5=2,8=3,38=5/8;
 6/7=2,8=2,9=2,10=2,28=1/1;
 7//1,2,3,16;
 1/6=2048,18=20,19=15,26=3/3(2);
 2/9=110/2;
 99//99;
 2/9=110/2;
 3/5=4,6=6,7=101,11=2,25=1,30=1,71=1,74=-5/1,2,3;
 4/5=5,16=3,69=1/1;
 5/5=2,8=3,38=5/8;
 7//1,2,3,16;
 1/6=2048,18=20,19=15,26=3/3(-5);
 2/9=110/2;
 6/7=2,8=2,9=2,10=2,19=2,28=1/1;
 99/9=1/99;
 --------------
 CH3Br_6311G_dp
 --------------
 Symbolic Z-matrix:
 Charge =  0 Multiplicity = 1
 C                     3.07573   0.04297   0. 
 H                     3.43081   0.5468    0.87463 
 H                     3.434     0.54793  -0.87267 
 H                     2.00573   0.04298  -0.00196 
 Br                    3.71238  -1.75781   0. 
 

 GradGradGradGradGradGradGradGradGradGradGradGradGradGradGradGradGradGrad
 Berny optimization.
 Initialization pass.
                           ----------------------------
                           !    Initial Parameters    !
                           ! (Angstroms and Degrees)  !
 --------------------------                            --------------------------
 ! Name  Definition              Value          Derivative Info.                !
 --------------------------------------------------------------------------------
 ! R1    R(1,2)                  1.07           estimate D2E/DX2                !
 ! R2    R(1,3)                  1.07           estimate D2E/DX2                !
 ! R3    R(1,4)                  1.07           estimate D2E/DX2                !
 ! R4    R(1,5)                  1.91           estimate D2E/DX2                !
 ! A1    A(2,1,3)              109.4712         estimate D2E/DX2                !
 ! A2    A(2,1,4)              109.4712         estimate D2E/DX2                !
 ! A3    A(2,1,5)              109.4712         estimate D2E/DX2                !
 ! A4    A(3,1,4)              109.4712         estimate D2E/DX2                !
 ! A5    A(3,1,5)              109.4712         estimate D2E/DX2                !
 ! A6    A(4,1,5)              109.4712         estimate D2E/DX2                !
 ! D1    D(2,1,4,3)            120.0            estimate D2E/DX2                !
 ! D2    D(2,1,5,3)           -120.0            estimate D2E/DX2                !
 ! D3    D(2,1,5,4)            120.0            estimate D2E/DX2                !
 ! D4    D(3,1,5,4)           -120.0            estimate D2E/DX2                !
 --------------------------------------------------------------------------------
 Trust Radius=3.00D-01 FncErr=1.00D-07 GrdErr=1.00D-06 EigMax=2.50D+02 EigMin=1.00D-04
 Number of steps in this run=    100 maximum allowed number of steps=    100.
 GradGradGradGradGradGradGradGradGradGradGradGradGradGradGradGradGradGrad

                          Input orientation:                          
 ---------------------------------------------------------------------
 Center     Atomic      Atomic             Coordinates (Angstroms)
 Number     Number       Type             X           Y           Z
 ---------------------------------------------------------------------
      1          6           0        3.075731    0.042967    0.000000
      2          1           0        3.430805    0.546800    0.874628
      3          1           0        3.434000    0.547930   -0.872672
      4          1           0        2.005732    0.042980   -0.001956
      5         35           0        3.712375   -1.757806    0.000000
 ---------------------------------------------------------------------
                    Distance matrix (angstroms):
                    1          2          3          4          5
     1  C    0.000000
     2  H    1.070000   0.000000
     3  H    1.070000   1.747303   0.000000
     4  H    1.070000   1.747303   1.747303   0.000000
     5  Br   1.910000   2.481021   2.481021   2.481021   0.000000
 Stoichiometry    CH3Br
 Framework group  C3V[C3(CBr),3SGV(H)]
 Deg. of freedom     3
 Full point group                 C3V     NOp   6
 Largest Abelian subgroup         CS      NOp   2
 Largest concise Abelian subgroup CS      NOp   2
                         Standard orientation:                         
 ---------------------------------------------------------------------
 Center     Atomic      Atomic             Coordinates (Angstroms)
 Number     Number       Type             X           Y           Z
 ---------------------------------------------------------------------
      1          6           0        0.000000   -0.000000   -1.495000
      2          1           0        0.000000    1.008806   -1.851667
      3          1           0        0.873651   -0.504403   -1.851667
      4          1           0       -0.873651   -0.504403   -1.851667
      5         35           0       -0.000000    0.000000    0.415000
 ---------------------------------------------------------------------
 Rotational constants (GHZ):         164.2463650           9.8296901           9.8296901
 Standard basis: 6-311G(d,p) (5D, 7F)
 There are    59 symmetry adapted cartesian basis functions of A'  symmetry.
 There are    25 symmetry adapted cartesian basis functions of A"  symmetry.
 There are    55 symmetry adapted basis functions of A'  symmetry.
 There are    25 symmetry adapted basis functions of A"  symmetry.
    80 basis functions,   146 primitive gaussians,    84 cartesian basis functions
    22 alpha electrons       22 beta electrons
       nuclear repulsion energy        90.3878532505 Hartrees.
 NAtoms=    5 NActive=    5 NUniq=    3 SFac= 2.78D+00 NAtFMM=   60 NAOKFM=F Big=F
 Integral buffers will be    131072 words long.
 Raffenetti 2 integral format.
 Two-electron integral symmetry is turned on.
 One-electron integrals computed using PRISM.
 NBasis=    80 RedAO= T EigKep=  9.12D-03  NBF=    55    25
 NBsUse=    80 1.00D-06 EigRej= -1.00D+00 NBFU=    55    25
 ExpMin= 1.03D-01 ExpMax= 4.40D+05 ExpMxC= 1.51D+04 IAcc=3 IRadAn=         5 AccDes= 0.00D+00
 Harris functional with IExCor=  402 and IRadAn=       5 diagonalized for initial guess.
 HarFok:  IExCor=  402 AccDes= 0.00D+00 IRadAn=         5 IDoV= 1 UseB2=F ITyADJ=14
 ICtDFT=  3500011 ScaDFX=  1.000000  1.000000  1.000000  1.000000
 FoFCou: FMM=F IPFlag=           0 FMFlag=      100000 FMFlg1=           0
         NFxFlg=           0 DoJE=T BraDBF=F KetDBF=T FulRan=T
         wScrn=  0.000000 ICntrl=       500 IOpCl=  0 I1Cent=   200000004 NGrid=           0
         NMat0=    1 NMatS0=      1 NMatT0=    0 NMatD0=    1 NMtDS0=    0 NMtDT0=    0
 Petite list used in FoFCou.
 Initial guess orbital symmetries:
       Occupied  (A1) (A1) (A1) (E) (E) (A1) (A1) (A1) (E) (E)
                 (A1) (E) (E) (E) (E) (A1) (A1) (E) (E) (A1) (E)
                 (E)
       Virtual   (A1) (A1) (E) (E) (A1) (E) (E) (E) (E) (A1) (A1)
                 (E) (E) (A1) (E) (E) (E) (E) (A1) (A1) (E) (E)
                 (A2) (E) (E) (A1) (E) (E) (E) (E) (A1) (A1) (E)
                 (E) (A1) (E) (E) (E) (E) (A1) (A1) (E) (E) (E)
                 (E) (E) (E) (A1) (A1) (E) (E) (A1) (A1) (A1) (E)
                 (E) (A1) (A1)
 The electronic state of the initial guess is 1-A1.
 Keep R1 ints in memory in symmetry-blocked form, NReq=7945259.
 Gradient too large for Newton-Raphson -- use scaled steepest descent instead.
     Minimum is close to point  3 DX=  3.31D-03 DF= -6.04D-06 DXR=  8.20D-03 DFR=  6.64D-05 which will be used.
 Gradient too large for Newton-Raphson -- use scaled steepest descent instead.
     Minimum is close to point  3 DX=  3.11D-03 DF= -1.79D-07 DXR=  5.16D-03 DFR=  2.67D-05 which will be used.
 Gradient too large for Newton-Raphson -- use scaled steepest descent instead.
     Minimum is close to point  2 DX=  2.40D-03 DF= -1.70D-08 DXR=  4.78D-03 DFR=  2.29D-05 which will be used.
 Gradient too large for Newton-Raphson -- use scaled steepest descent instead.
     Accept linear search using points  1 and  2.
     Minimum is close to point  2 DX= -2.25D-02 DF= -3.32D-08 DXR=  3.89D-02 DFR=  2.41D-04 which will be used.
 Gradient too large for Newton-Raphson -- use scaled steepest descent instead.
     Accept linear search using points  1 and  2.
 Gradient too large for Newton-Raphson -- use scaled steepest descent instead.
     Accept linear search using points  2 and  3.
 LinEq1:  Iter=  0 NonCon=     1 RMS=2.10D-05 Max=2.89D-04 NDo=     1
 AX will form     1 AO Fock derivatives at one time.
 LinEq1:  Iter=  1 NonCon=     1 RMS=1.34D-05 Max=2.71D-04 NDo=     1
 LinEq1:  Iter=  2 NonCon=     1 RMS=9.52D-07 Max=9.82D-06 NDo=     1
 LinEq1:  Iter=  3 NonCon=     1 RMS=3.36D-07 Max=3.08D-06 NDo=     1
 LinEq1:  Iter=  4 NonCon=     1 RMS=9.00D-08 Max=1.10D-06 NDo=     1
 LinEq1:  Iter=  5 NonCon=     1 RMS=2.37D-08 Max=2.41D-07 NDo=     1
 LinEq1:  Iter=  6 NonCon=     0 RMS=2.92D-09 Max=3.82D-08 NDo=     1
 Linear equations converged to 5.052D-09 5.052D-08 after     6 iterations.
     Minimum is close to point  2 DX=  9.73D-03 DF= -4.96D-11 DXR=  9.64D-03 DFR=  9.23D-05 which will be used.
 LinEq1:  Iter=  0 NonCon=     1 RMS=1.02D-08 Max=1.58D-07 NDo=     1
 LinEq1:  Iter=  1 NonCon=     1 RMS=1.84D-09 Max=3.23D-08 NDo=     1
 LinEq1:  Iter=  2 NonCon=     1 RMS=6.81D-10 Max=1.07D-08 NDo=     1
 LinEq1:  Iter=  3 NonCon=     1 RMS=4.35D-10 Max=1.02D-08 NDo=     1
 LinEq1:  Iter=  4 NonCon=     1 RMS=1.11D-10 Max=1.51D-09 NDo=     1
 LinEq1:  Iter=  5 NonCon=     1 RMS=4.30D-11 Max=6.42D-10 NDo=     1
 LinEq1:  Iter=  6 NonCon=     0 RMS=1.10D-11 Max=1.24D-10 NDo=     1
 Linear equations converged to 1.333D-11 1.333D-10 after     6 iterations.
 LinEq1:  Iter=  0 NonCon=     1 RMS=2.84D-08 Max=4.43D-07 NDo=     1
 LinEq1:  Iter=  1 NonCon=     1 RMS=4.03D-09 Max=7.04D-08 NDo=     1
 LinEq1:  Iter=  2 NonCon=     1 RMS=1.58D-09 Max=2.75D-08 NDo=     1
 LinEq1:  Iter=  3 NonCon=     1 RMS=8.38D-10 Max=1.96D-08 NDo=     1
 LinEq1:  Iter=  4 NonCon=     1 RMS=2.78D-10 Max=4.04D-09 NDo=     1
 LinEq1:  Iter=  5 NonCon=     1 RMS=9.66D-11 Max=1.39D-09 NDo=     1
 LinEq1:  Iter=  6 NonCon=     0 RMS=2.93D-11 Max=3.13D-10 NDo=     1
 Linear equations converged to 3.727D-11 3.727D-10 after     6 iterations.
 LinEq1:  Iter=  0 NonCon=     1 RMS=1.07D-08 Max=1.63D-07 NDo=     1
 LinEq1:  Iter=  1 NonCon=     1 RMS=9.59D-10 Max=1.43D-08 NDo=     1
 LinEq1:  Iter=  2 NonCon=     1 RMS=4.22D-10 Max=7.00D-09 NDo=     1
 LinEq1:  Iter=  3 NonCon=     1 RMS=1.49D-10 Max=2.45D-09 NDo=     1
 LinEq1:  Iter=  4 NonCon=     1 RMS=7.65D-11 Max=9.75D-10 NDo=     1
 LinEq1:  Iter=  5 NonCon=     1 RMS=3.04D-11 Max=4.09D-10 NDo=     1
 LinEq1:  Iter=  6 NonCon=     0 RMS=1.06D-11 Max=1.17D-10 NDo=     1
 Linear equations converged to 1.375D-11 1.375D-10 after     6 iterations.
 LinEq1:  Iter=  0 NonCon=     1 RMS=3.10D-08 Max=4.68D-07 NDo=     1
 LinEq1:  Iter=  1 NonCon=     1 RMS=2.75D-09 Max=4.10D-08 NDo=     1
 LinEq1:  Iter=  2 NonCon=     1 RMS=1.20D-09 Max=2.00D-08 NDo=     1
 LinEq1:  Iter=  3 NonCon=     1 RMS=4.11D-10 Max=6.73D-09 NDo=     1
 LinEq1:  Iter=  4 NonCon=     1 RMS=2.14D-10 Max=2.69D-09 NDo=     1
 LinEq1:  Iter=  5 NonCon=     1 RMS=8.68D-11 Max=1.16D-09 NDo=     1
 LinEq1:  Iter=  6 NonCon=     0 RMS=3.05D-11 Max=3.42D-10 NDo=     1
 Linear equations converged to 3.949D-11 3.949D-10 after     6 iterations.
 LinEq1:  Iter=  0 NonCon=     1 RMS=1.09D-08 Max=1.64D-07 NDo=     1
 LinEq1:  Iter=  1 NonCon=     1 RMS=9.60D-10 Max=1.43D-08 NDo=     1
 LinEq1:  Iter=  2 NonCon=     1 RMS=4.17D-10 Max=6.98D-09 NDo=     1
 LinEq1:  Iter=  3 NonCon=     1 RMS=1.34D-10 Max=2.14D-09 NDo=     1
 LinEq1:  Iter=  4 NonCon=     1 RMS=7.03D-11 Max=8.61D-10 NDo=     1
 LinEq1:  Iter=  5 NonCon=     1 RMS=3.01D-11 Max=4.00D-10 NDo=     1
 LinEq1:  Iter=  6 NonCon=     0 RMS=1.07D-11 Max=1.23D-10 NDo=     1
 Linear equations converged to 1.384D-11 1.384D-10 after     6 iterations.
 SCF Done:  E(RB3LYP) =  -2614.07198180     a.u. after   13 cycles
            Convg  =    0.1529D-09                    64 Fock formations.
              S**2 =  0.0000                  -V/T =  2.0012

 **********************************************************************

            Population analysis using the SCF Density.

 **********************************************************************

 Orbital symmetries:
       Occupied  (A1) (A1) (A1) (E) (E) (A1) (A1) (A1) (E) (E)
                 (A1) (E) (E) (E) (E) (A1) (A1) (E) (E) (A1) (E)
                 (E)
       Virtual   (A1) (A1) (E) (E) (A1) (E) (E) (E) (E) (A1) (A1)
                 (E) (E) (A1) (E) (E) (E) (E) (A1) (A1) (E) (E)
                 (A2) (E) (E) (A1) (E) (E) (E) (E) (A1) (A1) (E)
                 (E) (A1) (E) (E) (E) (E) (A1) (A1) (E) (E) (E)
                 (E) (E) (E) (A1) (A1) (E) (E) (A1) (A1) (A1) (E)
                 (E) (A1) (A1)
 The electronic state is 1-A1.
 Alpha  occ. eigenvalues -- -482.82100 -62.47415 -56.29452 -56.29051 -56.29051
 Alpha  occ. eigenvalues --  -10.21803  -8.68393  -6.51558  -6.50222  -6.50222
 Alpha  occ. eigenvalues --   -2.62649  -2.62262  -2.62262  -2.61201  -2.61201
 Alpha  occ. eigenvalues --   -0.81817  -0.67890  -0.45275  -0.45275  -0.39852
 Alpha  occ. eigenvalues --   -0.28155  -0.28155
 Alpha virt. eigenvalues --   -0.00342   0.05886   0.10030   0.10030   0.26142
 Alpha virt. eigenvalues --    0.27285   0.27285   0.30970   0.30970   0.33738
 Alpha virt. eigenvalues --    0.45872   0.55897   0.55897   0.58607   0.62256
 Alpha virt. eigenvalues --    0.62256   0.66624   0.66624   0.74830   0.92495
 Alpha virt. eigenvalues --    1.08803   1.08803   1.43666   1.46337   1.46337
 Alpha virt. eigenvalues --    1.57602   1.66438   1.66438   1.92330   1.92330
 Alpha virt. eigenvalues --    1.93190   2.04030   2.15495   2.15495   2.32945
 Alpha virt. eigenvalues --    2.39450   2.39450   2.50079   2.50079   2.77097
 Alpha virt. eigenvalues --    3.03745   3.73382   3.73382   4.14917   4.14918
 Alpha virt. eigenvalues --    4.25862   4.25862   4.53836   6.44125   7.47723
 Alpha virt. eigenvalues --    7.47723   7.57229  23.88836  47.74395 289.67729
 Alpha virt. eigenvalues --  289.67729 289.799921020.48261
          Condensed to atoms (all electrons):
               1          2          3          4          5
     1  C    4.949232   0.401595   0.401595   0.401595   0.231903
     2  H    0.401595   0.541577  -0.026337  -0.026337  -0.046176
     3  H    0.401595  -0.026337   0.541577  -0.026337  -0.046175
     4  H    0.401595  -0.026337  -0.026337   0.541577  -0.046175
     5  Br   0.231903  -0.046176  -0.046175  -0.046175  34.987739
 Mulliken charges:
               1
     1  C   -0.385920
     2  H    0.155678
     3  H    0.155678
     4  H    0.155678
     5  Br  -0.081116
 Sum of Mulliken charges =  -0.00000
 Mulliken charges with hydrogens summed into heavy atoms:
               1
     1  C    0.081116
     5  Br  -0.081116
 Electronic spatial extent (au):  <R**2>=            172.1330
 Charge=             -0.0000 electrons
 Dipole moment (field-independent basis, Debye):
    X=              0.0000    Y=             -0.0000    Z=             -1.8681  Tot=              1.8681
 Quadrupole moment (field-independent basis, Debye-Ang):
   XX=            -25.9333   YY=            -25.9333   ZZ=            -22.2231
   XY=             -0.0000   XZ=             -0.0000   YZ=             -0.0000
 Traceless Quadrupole moment (field-independent basis, Debye-Ang):
   XX=             -1.2367   YY=             -1.2367   ZZ=              2.4734
   XY=             -0.0000   XZ=             -0.0000   YZ=             -0.0000
 Octapole moment (field-independent basis, Debye-Ang**2):
  XXX=             -0.0000  YYY=              0.7792  ZZZ=             10.8171  XYY=             -0.0000
  XXY=             -0.7792  XXZ=              2.3285  XZZ=              0.0000  YZZ=              0.0000
  YYZ=              2.3285  XYZ=              0.0000
 Hexadecapole moment (field-independent basis, Debye-Ang**3):
 XXXX=            -36.8089 YYYY=            -36.8089 ZZZZ=           -152.2244 XXXY=              0.0000
 XXXZ=             -0.0000 YYYX=              0.0000 YYYZ=             -1.4154 ZZZX=             -0.0000
 ZZZY=              0.0000 XXYY=            -12.2696 XXZZ=            -31.0613 YYZZ=            -31.0613
 XXYZ=              1.4154 YYXZ=             -0.0000 ZZXY=             -0.0000
 N-N= 9.038785325049D+01 E-N=-6.426389716385D+03  KE= 2.610909787657D+03
 Symmetry A'   KE= 2.232605990443D+03
 Symmetry A"   KE= 3.783037972141D+02
 Calling FoFJK, ICntrl=      2127 FMM=F ISym2X=1 I1Cent= 0 IOpClX= 0 NMat=1 NMatS=1 NMatT=0.
 ***** Axes restored to original set *****
 -------------------------------------------------------------------
 Center     Atomic                   Forces (Hartrees/Bohr)
 Number     Number              X              Y              Z
 -------------------------------------------------------------------
      1        6          -0.003508643    0.009921538   -0.000001617
      2        1           0.005123219    0.003880172    0.010654015
      3        1           0.005161978    0.003894103   -0.010630159
      4        1          -0.012235886   -0.002256732   -0.000023888
      5       35           0.005459333   -0.015439082    0.000001649
 -------------------------------------------------------------------
 Cartesian Forces:  Max     0.015439082 RMS     0.007498217

 GradGradGradGradGradGradGradGradGradGradGradGradGradGradGradGradGradGrad
 Berny optimization.
 FormGI is forming the generalized inverse of G from B-inverse, IUseBI=4.
 Internal  Forces:  Max     0.016375883 RMS     0.007239870
 Search for a local minimum.
 Step number   1 out of a maximum of  100
 All quantities printed in internal units (Hartrees-Bohrs-Radians)
 Mixed Optimization -- RFO/linear search
 Second derivative matrix not updated -- first step.
 The second derivative matrix:
                          R1        R2        R3        R4        A1
           R1           0.37230
           R2           0.00000   0.37230
           R3           0.00000   0.00000   0.37230
           R4           0.00000   0.00000   0.00000   0.17771
           A1           0.00000   0.00000   0.00000   0.00000   0.16000
           A2           0.00000   0.00000   0.00000   0.00000   0.00000
           A3           0.00000   0.00000   0.00000   0.00000   0.00000
           A4           0.00000   0.00000   0.00000   0.00000   0.00000
           A5           0.00000   0.00000   0.00000   0.00000   0.00000
           A6           0.00000   0.00000   0.00000   0.00000   0.00000
           D1           0.00000   0.00000   0.00000   0.00000   0.00000
           D2           0.00000   0.00000   0.00000   0.00000   0.00000
           D3           0.00000   0.00000   0.00000   0.00000   0.00000
           D4           0.00000   0.00000   0.00000   0.00000   0.00000
                          A2        A3        A4        A5        A6
           A2           0.16000
           A3           0.00000   0.16000
           A4           0.00000   0.00000   0.16000
           A5           0.00000   0.00000   0.00000   0.16000
           A6           0.00000   0.00000   0.00000   0.00000   0.16000
           D1           0.00000   0.00000   0.00000   0.00000   0.00000
           D2           0.00000   0.00000   0.00000   0.00000   0.00000
           D3           0.00000   0.00000   0.00000   0.00000   0.00000
           D4           0.00000   0.00000   0.00000   0.00000   0.00000
                          D1        D2        D3        D4
           D1           0.00499
           D2           0.00000   0.00230
           D3           0.00000   0.00000   0.00230
           D4           0.00000   0.00000   0.00000   0.00230
 ITU=  0
     Eigenvalues ---    0.05132   0.05715   0.08733   0.16000   0.16000
     Eigenvalues ---    0.17771   0.37230   0.37230   0.37230
 RFO step:  Lambda=-2.86537655D-03 EMin= 5.13188015D-02
 Linear search not attempted -- first point.
 Iteration  1 RMS(Cart)=  0.02671078 RMS(Int)=  0.00022767
 Iteration  2 RMS(Cart)=  0.00012630 RMS(Int)=  0.00013161
 Iteration  3 RMS(Cart)=  0.00000005 RMS(Int)=  0.00013161
 ClnCor:  largest displacement from symmetrization is 5.67D-04 for atom     4.
 Variable       Old X    -DE/DX   Delta X   Delta X   Delta X     New X
                                 (Linear)    (Quad)   (Total)
    R1        2.02201   0.01224   0.00000   0.03261   0.03248   2.05449
    R2        2.02201   0.01224   0.00000   0.03261   0.03248   2.05449
    R3        2.02201   0.01224   0.00000   0.03261   0.03248   2.05449
    R4        3.60938   0.01638   0.00000   0.09069   0.09069   3.70006
    A1        1.91063   0.00069   0.00000   0.01276   0.01309   1.92372
    A2        1.91063   0.00146   0.00000   0.01368   0.01309   1.92372
    A3        1.91063  -0.00107   0.00000  -0.01338  -0.01328   1.89735
    A4        1.91063   0.00146   0.00000   0.01368   0.01309   1.92372
    A5        1.91063  -0.00106   0.00000  -0.01336  -0.01328   1.89735
    A6        1.91063  -0.00149   0.00000  -0.01338  -0.01328   1.89735
    D1        2.09440   0.00264   0.00000   0.03238   0.03291   2.12731
    D2       -2.09440   0.00046   0.00000   0.00074  -0.00000  -2.09440
    D3        2.09440   0.00023   0.00000   0.00036  -0.00000   2.09440
    D4       -2.09440  -0.00023   0.00000  -0.00038   0.00000  -2.09440
         Item               Value     Threshold  Converged?
 Maximum Force            0.016376     0.000450     NO 
 RMS     Force            0.007240     0.000300     NO 
 Maximum Displacement     0.059896     0.001800     NO 
 RMS     Displacement     0.026607     0.001200     NO 
 Predicted change in Energy=-1.453430D-03
 GradGradGradGradGradGradGradGradGradGradGradGradGradGradGradGradGradGrad

                          Input orientation:                          
 ---------------------------------------------------------------------
 Center     Atomic      Atomic             Coordinates (Angstroms)
 Number     Number       Type             X           Y           Z
 ---------------------------------------------------------------------
      1          6           0        3.070940    0.056517    0.000000
      2          1           0        3.438485    0.556363    0.892771
      3          1           0        3.441745    0.557516   -0.890774
      4          1           0        1.983851    0.042093   -0.001997
      5         35           0        3.723581   -1.789502   -0.000000
 ---------------------------------------------------------------------
                    Distance matrix (angstroms):
                    1          2          3          4          5
     1  C    0.000000
     2  H    1.087187   0.000000
     3  H    1.087187   1.783548   0.000000
     4  H    1.087187   1.783548   1.783548   0.000000
     5  Br   1.957990   2.526144   2.526144   2.526144   0.000000
 Stoichiometry    CH3Br
 Framework group  C3V[C3(CBr),3SGV(H)]
 Deg. of freedom     3
 Full point group                 C3V     NOp   6
 Largest Abelian subgroup         CS      NOp   2
 Largest concise Abelian subgroup CS      NOp   2
                         Standard orientation:                         
 ---------------------------------------------------------------------
 Center     Atomic      Atomic             Coordinates (Angstroms)
 Number     Number       Type             X           Y           Z
 ---------------------------------------------------------------------
      1          6           0        0.000000   -0.000000   -1.533713
      2          1           0        0.000000    1.029732   -1.882465
      3          1           0        0.891774   -0.514866   -1.882465
      4          1           0       -0.891774   -0.514866   -1.882465
      5         35           0       -0.000000    0.000000    0.424276
 ---------------------------------------------------------------------
 Rotational constants (GHZ):         157.6386163           9.3914571           9.3914571
 Standard basis: 6-311G(d,p) (5D, 7F)
 There are    59 symmetry adapted cartesian basis functions of A'  symmetry.
 There are    25 symmetry adapted cartesian basis functions of A"  symmetry.
 There are    55 symmetry adapted basis functions of A'  symmetry.
 There are    25 symmetry adapted basis functions of A"  symmetry.
    80 basis functions,   146 primitive gaussians,    84 cartesian basis functions
    22 alpha electrons       22 beta electrons
       nuclear repulsion energy        88.4026123824 Hartrees.
 NAtoms=    5 NActive=    5 NUniq=    3 SFac= 2.78D+00 NAtFMM=   60 NAOKFM=F Big=F
 Integral buffers will be    131072 words long.
 Raffenetti 2 integral format.
 Two-electron integral symmetry is turned on.
 One-electron integrals computed using PRISM.
 NBasis=    80 RedAO= T EigKep=  9.87D-03  NBF=    55    25
 NBsUse=    80 1.00D-06 EigRej= -1.00D+00 NBFU=    55    25
 Initial guess from the checkpoint file:  "ch3br.chk"
 B after Tr=    -0.000000   -0.000000   -0.000000
         Rot=    1.000000   -0.000000    0.000000    0.000000 Ang=   0.00 deg.
 Initial guess orbital symmetries:
       Occupied  (A1) (A1) (A1) (E) (E) (A1) (A1) (A1) (E) (E)
                 (A1) (E) (E) (E) (E) (A1) (A1) (E) (E) (A1) (E)
                 (E)
       Virtual   (A1) (A1) (E) (E) (A1) (E) (E) (E) (E) (A1) (A1)
                 (E) (E) (A1) (E) (E) (E) (E) (A1) (A1) (E) (E)
                 (A2) (E) (E) (A1) (E) (E) (E) (E) (A1) (A1) (E)
                 (E) (A1) (E) (E) (E) (E) (A1) (A1) (E) (E) (E)
                 (E) (E) (E) (A1) (A1) (E) (E) (A1) (A1) (A1) (E)
                 (E) (A1) (A1)
 ExpMin= 1.03D-01 ExpMax= 4.40D+05 ExpMxC= 1.51D+04 IAcc=3 IRadAn=         5 AccDes= 0.00D+00
 Harris functional with IExCor=  402 and IRadAn=       5 diagonalized for initial guess.
 HarFok:  IExCor=  402 AccDes= 0.00D+00 IRadAn=         5 IDoV= 1 UseB2=F ITyADJ=14
 ICtDFT=  3500011 ScaDFX=  1.000000  1.000000  1.000000  1.000000
 FoFCou: FMM=F IPFlag=           0 FMFlag=      100000 FMFlg1=           0
         NFxFlg=           0 DoJE=T BraDBF=F KetDBF=T FulRan=T
         wScrn=  0.000000 ICntrl=       500 IOpCl=  0 I1Cent=   200000004 NGrid=           0
         NMat0=    1 NMatS0=      1 NMatT0=    0 NMatD0=    1 NMtDS0=    0 NMtDT0=    0
 Petite list used in FoFCou.
 Keep R1 ints in memory in symmetry-blocked form, NReq=7945259.
 Gradient too large for Newton-Raphson -- use scaled steepest descent instead.
     Minimum is close to point  3 DX=  5.13D-02 DF= -2.47D-06 DXR=  7.87D-02 DFR=  6.23D-03 which will be used.
 Gradient too large for Newton-Raphson -- use scaled steepest descent instead.
 LinEq1:  Iter=  0 NonCon=     1 RMS=1.33D-04 Max=2.85D-03 NDo=     1
 AX will form     1 AO Fock derivatives at one time.
 LinEq1:  Iter=  1 NonCon=     1 RMS=1.02D-04 Max=1.77D-03 NDo=     1
 LinEq1:  Iter=  2 NonCon=     1 RMS=5.61D-06 Max=7.99D-05 NDo=     1
 LinEq1:  Iter=  3 NonCon=     1 RMS=1.86D-06 Max=3.18D-05 NDo=     1
 LinEq1:  Iter=  4 NonCon=     1 RMS=6.12D-07 Max=8.89D-06 NDo=     1
 LinEq1:  Iter=  5 NonCon=     1 RMS=1.02D-07 Max=9.85D-07 NDo=     1
 LinEq1:  Iter=  6 NonCon=     1 RMS=2.13D-08 Max=2.34D-07 NDo=     1
 LinEq1:  Iter=  7 NonCon=     1 RMS=5.09D-09 Max=5.14D-08 NDo=     1
 LinEq1:  Iter=  8 NonCon=     0 RMS=7.03D-10 Max=7.56D-09 NDo=     1
 Linear equations converged to 5.052D-09 5.052D-08 after     8 iterations.
     Minimum is close to point  2 DX=  3.45D-04 DF= -2.27D-12 DXR=  3.45D-04 DFR=  1.08D-07 which will be used.
 LinEq1:  Iter=  0 NonCon=     1 RMS=1.40D-07 Max=2.37D-06 NDo=     1
 LinEq1:  Iter=  1 NonCon=     1 RMS=8.57D-08 Max=1.89D-06 NDo=     1
 LinEq1:  Iter=  2 NonCon=     1 RMS=2.58D-08 Max=3.01D-07 NDo=     1
 LinEq1:  Iter=  3 NonCon=     1 RMS=5.67D-09 Max=7.58D-08 NDo=     1
 LinEq1:  Iter=  4 NonCon=     1 RMS=1.81D-09 Max=1.91D-08 NDo=     1
 LinEq1:  Iter=  5 NonCon=     1 RMS=7.06D-10 Max=8.26D-09 NDo=     1
 LinEq1:  Iter=  6 NonCon=     1 RMS=1.11D-10 Max=1.20D-09 NDo=     1
 LinEq1:  Iter=  7 NonCon=     0 RMS=1.07D-11 Max=1.31D-10 NDo=     1
 Linear equations converged to 6.322D-11 6.322D-10 after     7 iterations.
 SCF Done:  E(RB3LYP) =  -2614.07342810     a.u. after    5 cycles
            Convg  =    0.1841D-09                    25 Fock formations.
              S**2 =  0.0000                  -V/T =  2.0013
 Calling FoFJK, ICntrl=      2127 FMM=F ISym2X=1 I1Cent= 0 IOpClX= 0 NMat=1 NMatS=1 NMatT=0.
 ***** Axes restored to original set *****
 -------------------------------------------------------------------
 Center     Atomic                   Forces (Hartrees/Bohr)
 Number     Number              X              Y              Z
 -------------------------------------------------------------------
      1        6          -0.001956432    0.005532477   -0.000000791
      2        1           0.000781498   -0.001838866    0.000215517
      3        1           0.000782246   -0.001838398   -0.000215006
      4        1           0.000430293   -0.001962828   -0.000000444
      5       35          -0.000037605    0.000107615    0.000000724
 -------------------------------------------------------------------
 Cartesian Forces:  Max     0.005532477 RMS     0.001761878

 GradGradGradGradGradGradGradGradGradGradGradGradGradGradGradGradGradGrad
 Berny optimization.
 Using GEDIIS/GDIIS optimizer.
 FormGI is forming the generalized inverse of G from B-inverse, IUseBI=4.
 Internal  Forces:  Max     0.002381977 RMS     0.000975477
 Search for a local minimum.
 Step number   2 out of a maximum of  100
 All quantities printed in internal units (Hartrees-Bohrs-Radians)
 Mixed Optimization -- En-DIIS/RFO-DIIS
 Update second derivatives using D2CorX and points    1    2
 DE= -1.45D-03 DEPred=-1.45D-03 R= 9.95D-01
 TightC=F SS=  1.41D+00  RLast= 1.16D-01 DXNew= 5.0454D-01 3.4877D-01
 Trust test= 9.95D-01 RLast= 1.16D-01 DXMaxT set to 3.49D-01
 The second derivative matrix:
                          R1        R2        R3        R4        A1
           R1           0.37844
           R2           0.00614   0.37844
           R3           0.00614   0.00614   0.37844
           R4           0.00654   0.00654   0.00654   0.18428
           A1          -0.00848  -0.00848  -0.00848  -0.01131   0.15844
           A2          -0.00804  -0.00804  -0.00804  -0.01074  -0.00155
           A3           0.00855   0.00855   0.00855   0.01141   0.00158
           A4          -0.00804  -0.00804  -0.00804  -0.01074  -0.00155
           A5           0.00855   0.00855   0.00855   0.01142   0.00158
           A6           0.00826   0.00826   0.00826   0.01103   0.00157
           D1           0.00047   0.00047   0.00047   0.00059  -0.00011
           D2           0.00025   0.00025   0.00025   0.00032   0.00000
           D3           0.00012   0.00012   0.00012   0.00016   0.00000
           D4          -0.00012  -0.00012  -0.00012  -0.00016  -0.00000
                          A2        A3        A4        A5        A6
           A2           0.15846
           A3           0.00157   0.15840
           A4          -0.00154   0.00157   0.15846
           A5           0.00157  -0.00160   0.00157   0.15840
           A6           0.00157  -0.00160   0.00157  -0.00160   0.15841
           D1          -0.00010   0.00011  -0.00010   0.00011   0.00011
           D2           0.00000  -0.00000   0.00000  -0.00000  -0.00000
           D3           0.00000  -0.00000   0.00000  -0.00000  -0.00000
           D4          -0.00000   0.00000  -0.00000   0.00000   0.00000
                          D1        D2        D3        D4
           D1           0.00501
           D2           0.00000   0.00230
           D3           0.00000   0.00000   0.00230
           D4          -0.00000  -0.00000  -0.00000   0.00230
 ITU=  1  0
 Use linear search instead of GDIIS.
     Eigenvalues ---    0.05119   0.05856   0.07706   0.15887   0.16000
     Eigenvalues ---    0.18688   0.37230   0.37230   0.39344
 RFO step:  Lambda=-1.64314906D-04 EMin= 5.11909872D-02
 Quartic linear search produced a step of  0.04429.
 Iteration  1 RMS(Cart)=  0.00853852 RMS(Int)=  0.00017743
 Iteration  2 RMS(Cart)=  0.00009035 RMS(Int)=  0.00014978
 Iteration  3 RMS(Cart)=  0.00000001 RMS(Int)=  0.00014978
 ClnCor:  largest displacement from symmetrization is 3.26D-04 for atom     4.
 Variable       Old X    -DE/DX   Delta X   Delta X   Delta X     New X
                                 (Linear)    (Quad)   (Total)
    R1        2.05449  -0.00040   0.00144  -0.00077   0.00059   2.05508
    R2        2.05449  -0.00040   0.00144  -0.00077   0.00059   2.05508
    R3        2.05449  -0.00040   0.00144  -0.00077   0.00059   2.05508
    R4        3.70006  -0.00011   0.00402   0.00054   0.00455   3.70462
    A1        1.92372   0.00058   0.00058   0.01263   0.01325   1.93697
    A2        1.92372   0.00125   0.00058   0.01312   0.01325   1.93697
    A3        1.89735  -0.00094  -0.00059  -0.01334  -0.01386   1.88350
    A4        1.92372   0.00125   0.00058   0.01312   0.01325   1.93697
    A5        1.89735  -0.00094  -0.00059  -0.01334  -0.01386   1.88350
    A6        1.89735  -0.00129  -0.00059  -0.01334  -0.01386   1.88350
    D1        2.12731   0.00238   0.00146   0.03325   0.03515   2.16246
    D2       -2.09440   0.00041  -0.00000   0.00039   0.00000  -2.09440
    D3        2.09440   0.00020  -0.00000   0.00019   0.00000   2.09440
    D4       -2.09440  -0.00020   0.00000  -0.00020  -0.00000  -2.09440
         Item               Value     Threshold  Converged?
 Maximum Force            0.002382     0.000450     NO 
 RMS     Force            0.000975     0.000300     NO 
 Maximum Displacement     0.016070     0.001800     NO 
 RMS     Displacement     0.008475     0.001200     NO 
 Predicted change in Energy=-8.445644D-05
 GradGradGradGradGradGradGradGradGradGradGradGradGradGradGradGradGradGrad

                          Input orientation:                          
 ---------------------------------------------------------------------
 Center     Atomic      Atomic             Coordinates (Angstroms)
 Number     Number       Type             X           Y           Z
 ---------------------------------------------------------------------
      1          6           0        3.067934    0.065021    0.000000
      2          1           0        3.442576    0.552311    0.897132
      3          1           0        3.445853    0.553469   -0.895126
      4          1           0        1.980836    0.035528   -0.002006
      5         35           0        3.721377   -1.783269   -0.000000
 ---------------------------------------------------------------------
                    Distance matrix (angstroms):
                    1          2          3          4          5
     1  C    0.000000
     2  H    1.087499   0.000000
     3  H    1.087499   1.792261   0.000000
     4  H    1.087499   1.792261   1.792261   0.000000
     5  Br   1.960399   2.517441   2.517441   2.517441   0.000000
 Stoichiometry    CH3Br
 Framework group  C3V[C3(CBr),3SGV(H)]
 Deg. of freedom     3
 Full point group                 C3V     NOp   6
 Largest Abelian subgroup         CS      NOp   2
 Largest concise Abelian subgroup CS      NOp   2
                         Standard orientation:                         
 ---------------------------------------------------------------------
 Center     Atomic      Atomic             Coordinates (Angstroms)
 Number     Number       Type             X           Y           Z
 ---------------------------------------------------------------------
      1          6           0       -0.000000    0.000000   -1.536598
      2          1           0        0.000000    1.034762   -1.871145
      3          1           0        0.896130   -0.517381   -1.871145
      4          1           0       -0.896130   -0.517381   -1.871145
      5         35           0        0.000000   -0.000000    0.423801
 ---------------------------------------------------------------------
 Rotational constants (GHZ):         156.1095876           9.3968281           9.3968281
 Standard basis: 6-311G(d,p) (5D, 7F)
 There are    59 symmetry adapted cartesian basis functions of A'  symmetry.
 There are    25 symmetry adapted cartesian basis functions of A"  symmetry.
 There are    55 symmetry adapted basis functions of A'  symmetry.
 There are    25 symmetry adapted basis functions of A"  symmetry.
    80 basis functions,   146 primitive gaussians,    84 cartesian basis functions
    22 alpha electrons       22 beta electrons
       nuclear repulsion energy        88.4020621952 Hartrees.
 NAtoms=    5 NActive=    5 NUniq=    3 SFac= 2.78D+00 NAtFMM=   60 NAOKFM=F Big=F
 Integral buffers will be    131072 words long.
 Raffenetti 2 integral format.
 Two-electron integral symmetry is turned on.
 One-electron integrals computed using PRISM.
 NBasis=    80 RedAO= T EigKep=  9.86D-03  NBF=    55    25
 NBsUse=    80 1.00D-06 EigRej= -1.00D+00 NBFU=    55    25
 Initial guess from the checkpoint file:  "ch3br.chk"
 B after Tr=     0.000000    0.000000    0.000000
         Rot=    1.000000    0.000000   -0.000000   -0.000000 Ang=   0.00 deg.
 Initial guess orbital symmetries:
       Occupied  (A1) (A1) (A1) (E) (E) (A1) (A1) (A1) (E) (E)
                 (A1) (E) (E) (E) (E) (A1) (A1) (E) (E) (A1) (E)
                 (E)
       Virtual   (A1) (A1) (E) (E) (A1) (E) (E) (E) (E) (A1) (A1)
                 (E) (E) (A1) (E) (E) (E) (E) (A1) (A1) (E) (E)
                 (A2) (E) (E) (A1) (E) (E) (A1) (E) (E) (A1) (E)
                 (E) (A1) (E) (E) (E) (E) (A1) (A1) (E) (E) (E)
                 (E) (E) (E) (A1) (A1) (E) (E) (A1) (A1) (A1) (E)
                 (E) (A1) (A1)
 Keep R1 ints in memory in symmetry-blocked form, NReq=7945259.
 LinEq1:  Iter=  0 NonCon=     1 RMS=1.06D-04 Max=1.45D-03 NDo=     1
 AX will form     1 AO Fock derivatives at one time.
 LinEq1:  Iter=  1 NonCon=     1 RMS=2.19D-05 Max=3.63D-04 NDo=     1
 LinEq1:  Iter=  2 NonCon=     1 RMS=1.08D-05 Max=1.71D-04 NDo=     1
 LinEq1:  Iter=  3 NonCon=     1 RMS=3.47D-06 Max=4.33D-05 NDo=     1
 LinEq1:  Iter=  4 NonCon=     1 RMS=1.13D-06 Max=1.59D-05 NDo=     1
 LinEq1:  Iter=  5 NonCon=     1 RMS=9.59D-08 Max=1.02D-06 NDo=     1
 LinEq1:  Iter=  6 NonCon=     1 RMS=3.43D-08 Max=3.50D-07 NDo=     1
 LinEq1:  Iter=  7 NonCon=     1 RMS=1.38D-08 Max=1.29D-07 NDo=     1
 LinEq1:  Iter=  8 NonCon=     1 RMS=4.33D-09 Max=5.37D-08 NDo=     1
 LinEq1:  Iter=  9 NonCon=     0 RMS=3.03D-10 Max=3.95D-09 NDo=     1
 Linear equations converged to 5.052D-09 5.052D-08 after     9 iterations.
     Accept linear search using points  1 and  2.
     Minimum is close to point  2 DX= -1.24D-04 DF= -4.55D-13 DXR=  1.24D-04 DFR=  1.60D-08 which will be used.
 LinEq1:  Iter=  0 NonCon=     1 RMS=8.32D-08 Max=1.44D-06 NDo=     1
 LinEq1:  Iter=  1 NonCon=     1 RMS=5.87D-08 Max=1.49D-06 NDo=     1
 LinEq1:  Iter=  2 NonCon=     1 RMS=2.18D-08 Max=2.28D-07 NDo=     1
 LinEq1:  Iter=  3 NonCon=     1 RMS=4.54D-09 Max=7.43D-08 NDo=     1
 LinEq1:  Iter=  4 NonCon=     1 RMS=1.15D-09 Max=1.33D-08 NDo=     1
 LinEq1:  Iter=  5 NonCon=     1 RMS=3.04D-10 Max=2.72D-09 NDo=     1
 LinEq1:  Iter=  6 NonCon=     1 RMS=4.44D-11 Max=4.09D-10 NDo=     1
 LinEq1:  Iter=  7 NonCon=     0 RMS=1.39D-11 Max=1.69D-10 NDo=     1
 Linear equations converged to 4.338D-11 4.338D-10 after     7 iterations.
 SCF Done:  E(RB3LYP) =  -2614.07352471     a.u. after    3 cycles
            Convg  =    0.1336D-09                    19 Fock formations.
              S**2 =  0.0000                  -V/T =  2.0013
 Calling FoFJK, ICntrl=      2127 FMM=F ISym2X=1 I1Cent= 0 IOpClX= 0 NMat=1 NMatS=1 NMatT=0.
 ***** Axes restored to original set *****
 -------------------------------------------------------------------
 Center     Atomic                   Forces (Hartrees/Bohr)
 Number     Number              X              Y              Z
 -------------------------------------------------------------------
      1        6          -0.000860285    0.002433080   -0.000000156
      2        1          -0.000204836   -0.000684663   -0.000733052
      3        1          -0.000207529   -0.000685398    0.000731458
      4        1           0.000989504   -0.000262200    0.000001710
      5       35           0.000283146   -0.000800819    0.000000040
 -------------------------------------------------------------------
 Cartesian Forces:  Max     0.002433080 RMS     0.000837667

 GradGradGradGradGradGradGradGradGradGradGradGradGradGradGradGradGradGrad
 Berny optimization.
 Using GEDIIS/GDIIS optimizer.
 FormGI is forming the generalized inverse of G from B-inverse, IUseBI=4.
 Internal  Forces:  Max     0.000982089 RMS     0.000526981
 Search for a local minimum.
 Step number   3 out of a maximum of  100
 All quantities printed in internal units (Hartrees-Bohrs-Radians)
 Mixed Optimization -- En-DIIS/RFO-DIIS
 Swapping is turned off.
 Update second derivatives using D2CorX and points    1    2    3
 DE= -9.66D-05 DEPred=-8.45D-05 R= 1.14D+00
 TightC=F SS=  1.41D+00  RLast= 4.86D-02 DXNew= 5.8655D-01 1.4573D-01
 Trust test= 1.14D+00 RLast= 4.86D-02 DXMaxT set to 3.49D-01
 The second derivative matrix:
                          R1        R2        R3        R4        A1
           R1           0.38839
           R2           0.01609   0.38839
           R3           0.01609   0.01609   0.38839
           R4           0.00402   0.00402   0.00402   0.18208
           A1          -0.00729  -0.00729  -0.00729  -0.01982   0.13919
           A2          -0.00186  -0.00186  -0.00186  -0.02030  -0.01927
           A3           0.00489   0.00489   0.00489   0.02083   0.02100
           A4          -0.00186  -0.00186  -0.00186  -0.02030  -0.01927
           A5           0.00491   0.00491   0.00491   0.02084   0.02100
           A6           0.00196   0.00196   0.00196   0.02102   0.02020
           D1           0.01763   0.01763   0.01763  -0.00371   0.00365
           D2           0.00323   0.00323   0.00323  -0.00031   0.00093
           D3           0.00161   0.00161   0.00161  -0.00016   0.00046
           D4          -0.00162  -0.00162  -0.00162   0.00015  -0.00046
                          A2        A3        A4        A5        A6
           A2           0.14479
           A3           0.01817   0.13942
           A4          -0.01521   0.01817   0.14479
           A5           0.01817  -0.02058   0.01818   0.13941
           A6           0.01603  -0.01909   0.01603  -0.01910   0.14310
           D1           0.01238  -0.00804   0.01237  -0.00803  -0.01266
           D2           0.00243  -0.00170   0.00243  -0.00170  -0.00249
           D3           0.00121  -0.00085   0.00121  -0.00085  -0.00125
           D4          -0.00122   0.00085  -0.00122   0.00085   0.00125
                          D1        D2        D3        D4
           D1           0.03519
           D2           0.00522   0.00320
           D3           0.00261   0.00045   0.00252
           D4          -0.00261  -0.00045  -0.00022   0.00253
 ITU=  1  1  0
     Eigenvalues ---    0.04619   0.06003   0.06694   0.15788   0.16000
     Eigenvalues ---    0.19483   0.37230   0.37230   0.42113
 En-DIIS/RFO-DIIS/Sim-DIIS IScMMF=       -3 using points:     3    2
 RFO step:  Lambda=-2.06088479D-05.
 DidBck=F Rises=F RFO-DIIS coefs:    1.27766   -0.27766
 Iteration  1 RMS(Cart)=  0.00189094 RMS(Int)=  0.00005062
 Iteration  2 RMS(Cart)=  0.00000876 RMS(Int)=  0.00004982
 Iteration  3 RMS(Cart)=  0.00000000 RMS(Int)=  0.00004982
 ClnCor:  largest displacement from symmetrization is 1.47D-05 for atom     4.
 Variable       Old X    -DE/DX   Delta X   Delta X   Delta X     New X
                                 (Linear)    (Quad)   (Total)
    R1        2.05508  -0.00098   0.00016  -0.00277  -0.00260   2.05247
    R2        2.05508  -0.00098   0.00016  -0.00277  -0.00260   2.05247
    R3        2.05508  -0.00098   0.00016  -0.00277  -0.00260   2.05247
    R4        3.70462   0.00085   0.00126   0.00622   0.00748   3.71210
    A1        1.93697   0.00008   0.00368  -0.00010   0.00346   1.94043
    A2        1.93697   0.00018   0.00368  -0.00015   0.00346   1.94043
    A3        1.88350  -0.00014  -0.00385   0.00013  -0.00370   1.87980
    A4        1.93697   0.00018   0.00368  -0.00015   0.00346   1.94043
    A5        1.88350  -0.00014  -0.00385   0.00013  -0.00370   1.87980
    A6        1.88350  -0.00019  -0.00385   0.00015  -0.00370   1.87980
    D1        2.16246   0.00036   0.00976  -0.00034   0.00952   2.17198
    D2       -2.09440   0.00006   0.00000  -0.00003  -0.00000  -2.09440
    D3        2.09440   0.00003   0.00000  -0.00002   0.00000   2.09440
    D4       -2.09440  -0.00003   0.00000   0.00002   0.00000  -2.09440
         Item               Value     Threshold  Converged?
 Maximum Force            0.000982     0.000450     NO 
 RMS     Force            0.000527     0.000300     NO 
 Maximum Displacement     0.005949     0.001800     NO 
 RMS     Displacement     0.001892     0.001200     NO 
 Predicted change in Energy=-1.030559D-05
 GradGradGradGradGradGradGradGradGradGradGradGradGradGradGradGradGradGrad

                          Input orientation:                          
 ---------------------------------------------------------------------
 Center     Atomic      Atomic             Coordinates (Angstroms)
 Number     Number       Type             X           Y           Z
 ---------------------------------------------------------------------
      1          6           0        3.066821    0.068169    0.000000
      2          1           0        3.442841    0.551441    0.897061
      3          1           0        3.446117    0.552599   -0.895055
      4          1           0        1.981216    0.034698   -0.002006
      5         35           0        3.721584   -1.783853   -0.000000
 ---------------------------------------------------------------------
                    Distance matrix (angstroms):
                    1          2          3          4          5
     1  C    0.000000
     2  H    1.086122   0.000000
     3  H    1.086122   1.792120   0.000000
     4  H    1.086122   1.792120   1.792120   0.000000
     5  Br   1.964358   2.517144   2.517144   2.517144   0.000000
 Stoichiometry    CH3Br
 Framework group  C3V[C3(CBr),3SGV(H)]
 Deg. of freedom     3
 Full point group                 C3V     NOp   6
 Largest Abelian subgroup         CS      NOp   2
 Largest concise Abelian subgroup CS      NOp   2
                         Standard orientation:                         
 ---------------------------------------------------------------------
 Center     Atomic      Atomic             Coordinates (Angstroms)
 Number     Number       Type             X           Y           Z
 ---------------------------------------------------------------------
      1          6           0       -0.000000    0.000000   -1.540037
      2          1           0       -0.000000    1.034681   -1.870336
      3          1           0        0.896060   -0.517340   -1.870336
      4          1           0       -0.896060   -0.517340   -1.870336
      5         35           0        0.000000   -0.000000    0.424321
 ---------------------------------------------------------------------
 Rotational constants (GHZ):         156.1342222           9.3703576           9.3703576
 Standard basis: 6-311G(d,p) (5D, 7F)
 There are    59 symmetry adapted cartesian basis functions of A'  symmetry.
 There are    25 symmetry adapted cartesian basis functions of A"  symmetry.
 There are    55 symmetry adapted basis functions of A'  symmetry.
 There are    25 symmetry adapted basis functions of A"  symmetry.
    80 basis functions,   146 primitive gaussians,    84 cartesian basis functions
    22 alpha electrons       22 beta electrons
       nuclear repulsion energy        88.3015902892 Hartrees.
 NAtoms=    5 NActive=    5 NUniq=    3 SFac= 2.78D+00 NAtFMM=   60 NAOKFM=F Big=F
 Integral buffers will be    131072 words long.
 Raffenetti 2 integral format.
 Two-electron integral symmetry is turned on.
 One-electron integrals computed using PRISM.
 NBasis=    80 RedAO= T EigKep=  9.87D-03  NBF=    55    25
 NBsUse=    80 1.00D-06 EigRej= -1.00D+00 NBFU=    55    25
 Initial guess from the checkpoint file:  "ch3br.chk"
 B after Tr=    -0.000000   -0.000000   -0.000000
         Rot=    1.000000    0.000000    0.000000   -0.000000 Ang=   0.00 deg.
 Initial guess orbital symmetries:
       Occupied  (A1) (A1) (A1) (E) (E) (A1) (A1) (A1) (E) (E)
                 (A1) (E) (E) (E) (E) (A1) (A1) (E) (E) (A1) (E)
                 (E)
       Virtual   (A1) (A1) (E) (E) (A1) (E) (E) (E) (E) (A1) (A1)
                 (E) (E) (A1) (E) (E) (E) (E) (A1) (A1) (E) (E)
                 (A2) (E) (E) (A1) (E) (E) (A1) (E) (E) (A1) (E)
                 (E) (A1) (E) (E) (E) (E) (A1) (A1) (E) (E) (E)
                 (E) (E) (E) (A1) (A1) (E) (E) (A1) (A1) (A1) (E)
                 (E) (A1) (A1)
 Keep R1 ints in memory in symmetry-blocked form, NReq=7945259.
 LinEq1:  Iter=  0 NonCon=     1 RMS=5.38D-05 Max=6.88D-04 NDo=     1
 AX will form     1 AO Fock derivatives at one time.
 LinEq1:  Iter=  1 NonCon=     1 RMS=7.20D-06 Max=7.40D-05 NDo=     1
 LinEq1:  Iter=  2 NonCon=     1 RMS=3.31D-06 Max=6.64D-05 NDo=     1
 LinEq1:  Iter=  3 NonCon=     1 RMS=1.84D-06 Max=2.55D-05 NDo=     1
 LinEq1:  Iter=  4 NonCon=     1 RMS=2.48D-07 Max=2.60D-06 NDo=     1
 LinEq1:  Iter=  5 NonCon=     1 RMS=1.40D-07 Max=1.86D-06 NDo=     1
 LinEq1:  Iter=  6 NonCon=     1 RMS=2.69D-08 Max=3.10D-07 NDo=     1
 LinEq1:  Iter=  7 NonCon=     1 RMS=6.51D-09 Max=7.58D-08 NDo=     1
 LinEq1:  Iter=  8 NonCon=     0 RMS=1.15D-09 Max=1.70D-08 NDo=     1
 Linear equations converged to 5.052D-09 5.052D-08 after     8 iterations.
     Minimum is close to point  2 DX= -3.60D-04 DF= -4.55D-13 DXR=  3.60D-04 DFR=  7.45D-08 which will be used.
 LinEq1:  Iter=  0 NonCon=     1 RMS=2.62D-08 Max=5.14D-07 NDo=     1
 LinEq1:  Iter=  1 NonCon=     1 RMS=2.03D-08 Max=2.90D-07 NDo=     1
 LinEq1:  Iter=  2 NonCon=     1 RMS=5.49D-09 Max=1.05D-07 NDo=     1
 LinEq1:  Iter=  3 NonCon=     1 RMS=1.55D-09 Max=1.76D-08 NDo=     1
 LinEq1:  Iter=  4 NonCon=     1 RMS=4.05D-10 Max=6.95D-09 NDo=     1
 LinEq1:  Iter=  5 NonCon=     1 RMS=1.26D-10 Max=1.33D-09 NDo=     1
 LinEq1:  Iter=  6 NonCon=     1 RMS=2.49D-11 Max=4.74D-10 NDo=     1
 LinEq1:  Iter=  7 NonCon=     0 RMS=5.03D-12 Max=5.10D-11 NDo=     1
 Linear equations converged to 2.322D-11 2.322D-10 after     7 iterations.
 LinEq1:  Iter=  0 NonCon=     1 RMS=3.77D-08 Max=5.46D-07 NDo=     1
 LinEq1:  Iter=  1 NonCon=     1 RMS=2.75D-08 Max=5.29D-07 NDo=     1
 LinEq1:  Iter=  2 NonCon=     1 RMS=6.36D-09 Max=1.19D-07 NDo=     1
 LinEq1:  Iter=  3 NonCon=     1 RMS=2.05D-09 Max=2.94D-08 NDo=     1
 LinEq1:  Iter=  4 NonCon=     1 RMS=6.15D-10 Max=1.02D-08 NDo=     1
 LinEq1:  Iter=  5 NonCon=     1 RMS=1.54D-10 Max=1.72D-09 NDo=     1
 LinEq1:  Iter=  6 NonCon=     1 RMS=4.68D-11 Max=8.26D-10 NDo=     1
 LinEq1:  Iter=  7 NonCon=     0 RMS=6.68D-12 Max=7.18D-11 NDo=     1
 Linear equations converged to 4.548D-11 4.548D-10 after     7 iterations.
 Search did not lower the energy significantly.
 No lower point found -- using Newton-Raphson step.
 SCF Done:  E(RB3LYP) =  -2614.07353599     a.u. after    4 cycles
            Convg  =    0.1171D-06                    46 Fock formations.
              S**2 =  0.0000                  -V/T =  2.0013
 Calling FoFJK, ICntrl=      2127 FMM=F ISym2X=1 I1Cent= 0 IOpClX= 0 NMat=1 NMatS=1 NMatT=0.
 ***** Axes restored to original set *****
 -------------------------------------------------------------------
 Center     Atomic                   Forces (Hartrees/Bohr)
 Number     Number              X              Y              Z
 -------------------------------------------------------------------
      1        6          -0.000078000    0.000220948    0.000000186
      2        1          -0.000056134   -0.000088412   -0.000143350
      3        1          -0.000056671   -0.000088406    0.000142980
      4        1           0.000177307   -0.000005685    0.000000339
      5       35           0.000013497   -0.000038445   -0.000000155
 -------------------------------------------------------------------
 Cartesian Forces:  Max     0.000220948 RMS     0.000100339

 GradGradGradGradGradGradGradGradGradGradGradGradGradGradGradGradGradGrad
 Berny optimization.
 Using GEDIIS/GDIIS optimizer.
 FormGI is forming the generalized inverse of G from B-inverse, IUseBI=4.
 Internal  Forces:  Max     0.000177187 RMS     0.000082872
 Search for a local minimum.
 Step number   4 out of a maximum of  100
 All quantities printed in internal units (Hartrees-Bohrs-Radians)
 Mixed Optimization -- En-DIIS/RFO-DIIS
 Swapping is turned off.
 Update second derivatives using D2CorX and points    1    2    3    4
 DE= -1.13D-05 DEPred=-1.03D-05 R= 1.09D+00
 TightC=F SS=  1.41D+00  RLast= 1.56D-02 DXNew= 5.8655D-01 4.6860D-02
 Trust test= 1.09D+00 RLast= 1.56D-02 DXMaxT set to 3.49D-01
 The second derivative matrix:
                          R1        R2        R3        R4        A1
           R1           0.37194
           R2          -0.00036   0.37194
           R3          -0.00036  -0.00036   0.37194
           R4           0.00737   0.00737   0.00737   0.18690
           A1           0.00079   0.00079   0.00079  -0.01007   0.13784
           A2           0.00272   0.00272   0.00272  -0.01648  -0.01986
           A3          -0.00209  -0.00209  -0.00209   0.01377   0.02209
           A4           0.00272   0.00272   0.00272  -0.01648  -0.01986
           A5          -0.00209  -0.00209  -0.00209   0.01377   0.02210
           A6          -0.00324  -0.00324  -0.00324   0.01717   0.02089
           D1           0.00597   0.00597   0.00597  -0.02287   0.00614
           D2           0.00112   0.00112   0.00112  -0.00384   0.00138
           D3           0.00056   0.00056   0.00056  -0.00192   0.00069
           D4          -0.00056  -0.00056  -0.00056   0.00192  -0.00069
                          A2        A3        A4        A5        A6
           A2           0.14466
           A3           0.01864   0.13852
           A4          -0.01534   0.01864   0.14466
           A5           0.01865  -0.02149   0.01865   0.13850
           A6           0.01628  -0.01969   0.01629  -0.01970   0.14272
           D1           0.01404  -0.01015   0.01404  -0.01013  -0.01427
           D2           0.00271  -0.00207   0.00271  -0.00207  -0.00277
           D3           0.00136  -0.00103   0.00135  -0.00103  -0.00138
           D4          -0.00136   0.00104  -0.00136   0.00104   0.00139
                          D1        D2        D3        D4
           D1           0.03297
           D2           0.00475   0.00310
           D3           0.00237   0.00040   0.00250
           D4          -0.00238  -0.00040  -0.00020   0.00250
 ITU=  1  1  1  0
     Eigenvalues ---    0.04613   0.06042   0.06659   0.15762   0.16000
     Eigenvalues ---    0.20189   0.37230   0.37230   0.37259
 En-DIIS/RFO-DIIS/Sim-DIIS IScMMF=       -3 using points:     4    3    2
 RFO step:  Lambda=-2.94261241D-07.
 DidBck=F Rises=F RFO-DIIS coefs:    1.10818   -0.12247    0.01429
 Iteration  1 RMS(Cart)=  0.00020850 RMS(Int)=  0.00000199
 Iteration  2 RMS(Cart)=  0.00000005 RMS(Int)=  0.00000199
 ClnCor:  largest displacement from symmetrization is 2.97D-06 for atom     4.
 Variable       Old X    -DE/DX   Delta X   Delta X   Delta X     New X
                                 (Linear)    (Quad)   (Total)
    R1        2.05247  -0.00018  -0.00029  -0.00022  -0.00051   2.05197
    R2        2.05247  -0.00018  -0.00029  -0.00022  -0.00051   2.05197
    R3        2.05247  -0.00018  -0.00029  -0.00022  -0.00051   2.05197
    R4        3.71210   0.00004   0.00074  -0.00029   0.00045   3.71255
    A1        1.94043   0.00000   0.00019   0.00001   0.00020   1.94063
    A2        1.94043   0.00001   0.00019   0.00001   0.00020   1.94063
    A3        1.87980  -0.00001  -0.00020  -0.00001  -0.00021   1.87959
    A4        1.94043   0.00001   0.00019   0.00001   0.00020   1.94063
    A5        1.87980  -0.00001  -0.00020  -0.00001  -0.00021   1.87959
    A6        1.87980  -0.00001  -0.00020  -0.00001  -0.00021   1.87959
    D1        2.17198   0.00001   0.00053   0.00003   0.00055   2.17254
    D2       -2.09440   0.00000  -0.00000   0.00000   0.00000  -2.09440
    D3        2.09440   0.00000   0.00000   0.00000   0.00000   2.09440
    D4       -2.09440  -0.00000   0.00000  -0.00000   0.00000  -2.09440
         Item               Value     Threshold  Converged?
 Maximum Force            0.000177     0.000450     YES
 RMS     Force            0.000083     0.000300     YES
 Maximum Displacement     0.000409     0.001800     YES
 RMS     Displacement     0.000209     0.001200     YES
 Predicted change in Energy=-1.499301D-07
 Optimization completed.
    -- Stationary point found.
                           ----------------------------
                           !   Optimized Parameters   !
                           ! (Angstroms and Degrees)  !
 --------------------------                            --------------------------
 ! Name  Definition              Value          Derivative Info.                !
 --------------------------------------------------------------------------------
 ! R1    R(1,2)                  1.0861         -DE/DX =   -0.0002              !
 ! R2    R(1,3)                  1.0861         -DE/DX =   -0.0002              !
 ! R3    R(1,4)                  1.0861         -DE/DX =   -0.0002              !
 ! R4    R(1,5)                  1.9644         -DE/DX =    0.0                 !
 ! A1    A(2,1,3)              111.1786         -DE/DX =    0.0                 !
 ! A2    A(2,1,4)              111.1786         -DE/DX =    0.0                 !
 ! A3    A(2,1,5)              107.7046         -DE/DX =    0.0                 !
 ! A4    A(3,1,4)              111.1786         -DE/DX =    0.0                 !
 ! A5    A(3,1,5)              107.7046         -DE/DX =    0.0                 !
 ! A6    A(4,1,5)              107.7046         -DE/DX =    0.0                 !
 ! D1    D(2,1,4,3)            124.4456         -DE/DX =    0.0                 !
 ! D2    D(2,1,5,3)           -120.0            -DE/DX =    0.0                 !
 ! D3    D(2,1,5,4)            120.0            -DE/DX =    0.0                 !
 ! D4    D(3,1,5,4)           -120.0            -DE/DX =    0.0                 !
 --------------------------------------------------------------------------------
 GradGradGradGradGradGradGradGradGradGradGradGradGradGradGradGradGradGrad

                          Input orientation:                          
 ---------------------------------------------------------------------
 Center     Atomic      Atomic             Coordinates (Angstroms)
 Number     Number       Type             X           Y           Z
 ---------------------------------------------------------------------
      1          6           0        3.066821    0.068169    0.000000
      2          1           0        3.442841    0.551441    0.897061
      3          1           0        3.446117    0.552599   -0.895055
      4          1           0        1.981216    0.034698   -0.002006
      5         35           0        3.721584   -1.783853   -0.000000
 ---------------------------------------------------------------------
                    Distance matrix (angstroms):
                    1          2          3          4          5
     1  C    0.000000
     2  H    1.086122   0.000000
     3  H    1.086122   1.792120   0.000000
     4  H    1.086122   1.792120   1.792120   0.000000
     5  Br   1.964358   2.517144   2.517144   2.517144   0.000000
 Stoichiometry    CH3Br
 Framework group  C3V[C3(CBr),3SGV(H)]
 Deg. of freedom     3
 Full point group                 C3V     NOp   6
 Largest Abelian subgroup         CS      NOp   2
 Largest concise Abelian subgroup CS      NOp   2
                         Standard orientation:                         
 ---------------------------------------------------------------------
 Center     Atomic      Atomic             Coordinates (Angstroms)
 Number     Number       Type             X           Y           Z
 ---------------------------------------------------------------------
      1          6           0        0.000000    0.000000   -1.540037
      2          1           0        0.000000    1.034681   -1.870336
      3          1           0        0.896060   -0.517340   -1.870336
      4          1           0       -0.896060   -0.517340   -1.870336
      5         35           0       -0.000000   -0.000000    0.424321
 ---------------------------------------------------------------------
 Rotational constants (GHZ):         156.1342222           9.3703576           9.3703576

 **********************************************************************

            Population analysis using the SCF Density.

 **********************************************************************

 Orbital symmetries:
       Occupied  (A1) (A1) (A1) (E) (E) (A1) (A1) (A1) (E) (E)
                 (A1) (E) (E) (E) (E) (A1) (A1) (E) (E) (A1) (E)
                 (E)
       Virtual   (A1) (A1) (E) (E) (A1) (E) (E) (E) (E) (A1) (A1)
                 (E) (E) (A1) (E) (E) (E) (E) (A1) (A1) (E) (E)
                 (A2) (E) (E) (A1) (E) (E) (A1) (E) (E) (A1) (E)
                 (E) (A1) (E) (E) (E) (E) (A1) (A1) (E) (E) (E)
                 (E) (E) (E) (A1) (A1) (E) (E) (A1) (A1) (A1) (E)
                 (E) (A1) (A1)
 The electronic state is 1-A1.
 Alpha  occ. eigenvalues -- -482.82010 -62.47303 -56.29348 -56.28939 -56.28939
 Alpha  occ. eigenvalues --  -10.22745  -8.68248  -6.51416  -6.50074  -6.50074
 Alpha  occ. eigenvalues --   -2.62496  -2.62116  -2.62116  -2.61052  -2.61052
 Alpha  occ. eigenvalues --   -0.80768  -0.67810  -0.45153  -0.45153  -0.38938
 Alpha  occ. eigenvalues --   -0.28146  -0.28146
 Alpha virt. eigenvalues --   -0.01599   0.05318   0.09785   0.09785   0.25999
 Alpha virt. eigenvalues --    0.27072   0.27072   0.31077   0.31077   0.33979
 Alpha virt. eigenvalues --    0.44263   0.55110   0.55110   0.57346   0.62434
 Alpha virt. eigenvalues --    0.62434   0.66482   0.66482   0.74171   0.91631
 Alpha virt. eigenvalues --    1.08054   1.08054   1.41231   1.45301   1.45301
 Alpha virt. eigenvalues --    1.55744   1.65689   1.65689   1.89408   1.92051
 Alpha virt. eigenvalues --    1.92051   2.02468   2.12640   2.12640   2.31162
 Alpha virt. eigenvalues --    2.40845   2.40845   2.47343   2.47343   2.76965
 Alpha virt. eigenvalues --    2.97556   3.68962   3.68962   4.14914   4.14914
 Alpha virt. eigenvalues --    4.24693   4.24693   4.53357   6.41964   7.47796
 Alpha virt. eigenvalues --    7.47796   7.57505  23.83552  47.73111 289.67691
 Alpha virt. eigenvalues --  289.67691 289.800211020.46643
          Condensed to atoms (all electrons):
               1          2          3          4          5
     1  C    4.956893   0.397811   0.397811   0.397811   0.231085
     2  H    0.397811   0.535296  -0.024421  -0.024421  -0.043749
     3  H    0.397811  -0.024421   0.535296  -0.024421  -0.043749
     4  H    0.397811  -0.024421  -0.024421   0.535296  -0.043749
     5  Br   0.231085  -0.043749  -0.043749  -0.043749  34.997206
 Mulliken charges:
               1
     1  C   -0.381411
     2  H    0.159485
     3  H    0.159485
     4  H    0.159485
     5  Br  -0.097044
 Sum of Mulliken charges =  -0.00000
 Mulliken charges with hydrogens summed into heavy atoms:
               1
     1  C    0.097044
     5  Br  -0.097044
 Electronic spatial extent (au):  <R**2>=            177.3336
 Charge=             -0.0000 electrons
 Dipole moment (field-independent basis, Debye):
    X=             -0.0000    Y=              0.0000    Z=             -1.9671  Tot=              1.9671
 Quadrupole moment (field-independent basis, Debye-Ang):
   XX=            -25.9629   YY=            -25.9629   ZZ=            -22.1412
   XY=              0.0000   XZ=             -0.0000   YZ=              0.0000
 Traceless Quadrupole moment (field-independent basis, Debye-Ang):
   XX=             -1.2739   YY=             -1.2739   ZZ=              2.5478
   XY=              0.0000   XZ=             -0.0000   YZ=              0.0000
 Octapole moment (field-independent basis, Debye-Ang**2):
  XXX=             -0.0000  YYY=              0.8720  ZZZ=             11.1640  XYY=              0.0000
  XXY=             -0.8720  XXZ=              2.3241  XZZ=              0.0000  YZZ=              0.0000
  YYZ=              2.3241  XYZ=             -0.0000
 Hexadecapole moment (field-independent basis, Debye-Ang**3):
 XXXX=            -37.2473 YYYY=            -37.2473 ZZZZ=           -159.2363 XXXY=              0.0000
 XXXZ=             -0.0000 YYYX=              0.0000 YYYZ=             -1.6052 ZZZX=             -0.0000
 ZZZY=              0.0000 XXYY=            -12.4158 XXZZ=            -31.9885 YYZZ=            -31.9885
 XXYZ=              1.6052 YYXZ=             -0.0000 ZZXY=              0.0000
 N-N= 8.830159028917D+01 E-N=-6.422174244281D+03  KE= 2.610780694994D+03
 Symmetry A'   KE= 2.232508980244D+03
 Symmetry A"   KE= 3.782717147502D+02
 1\1\GINC-CN209\FOpt\RB3LYP\6-311G(d,p)\C1H3Br1\21CY91R08\14-Nov-2021\0
 \\# opt=maxcycles=2048 freq=noraman b3lyp/6-311g(d,p) scf=qc\\CH3Br_63
 11G_dp\\0,1\C,3.0668207133,0.068168732,0.0000000011\H,3.4428408741,0.5
 514408155,0.8970612444\H,3.4461171798,0.5525991204,-0.8950549311\H,1.9
 812159696,0.034698487,-0.0020063096\Br,3.7215839582,-1.7838534688,0.\\
 Version=EM64L-G16RevB.01\State=1-A1\HF=-2614.073536\RMSD=2.319e-09\RMS
 F=1.003e-04\Dipole=-0.2579572,0.7296418,0.0000001\Quadrupole=-0.631422
 7,1.5785242,-0.9471015,-0.8929089,0.,-0.0000002\PG=C03V [C3(C1Br1),3SG
 V(H1)]\\@


 ABSOLUTISM, OBSOLETISM -- IF IT WORKS, IT'S OUT OF DATE

                          -- STAFFORD BEER
 Job cpu time:       0 days  0 hours  2 minutes 19.9 seconds.
 Elapsed time:       0 days  0 hours  1 minutes 10.5 seconds.
 File lengths (MBytes):  RWF=      6 Int=      0 D2E=      0 Chk=      2 Scr=      1
 Normal termination of Gaussian 16 at Sun Nov 14 01:40:48 2021.
 Link1:  Proceeding to internal job step number  2.
 ----------------------------------------------------------------------
 #N Geom=AllCheck Guess=TCheck SCRF=Check GenChk RB3LYP/6-311G(d,p) Fre
 q
 ----------------------------------------------------------------------
 1/6=2048,10=4,29=7,30=1,38=1,40=1/1,3;
 2/12=2,40=1/2;
 3/5=4,6=6,7=101,11=2,14=-4,25=1,30=1,70=2,71=2,74=-5,116=1,140=1/1,2,3;
 4/5=101/1;
 5/5=2,8=3,38=6,98=1/8;
 8/6=4,10=90,11=11/1;
 11/6=1,8=1,9=11,15=111,16=1/1,2,10;
 10/6=1/2;
 6/7=2,8=2,9=2,10=2,28=1/1;
 7/8=1,10=1,25=1/1,2,3,16;
 1/6=2048,10=4,30=1/3;
 99//99;
 Structure from the checkpoint file:  "ch3br.chk"
 --------------
 CH3Br_6311G_dp
 --------------
 Charge =  0 Multiplicity = 1
 Redundant internal coordinates found in file.  (old form).
 C,0,3.0668207133,0.068168732,0.0000000011
 H,0,3.4428408741,0.5514408155,0.8970612444
 H,0,3.4461171798,0.5525991204,-0.8950549311
 H,0,1.9812159696,0.034698487,-0.0020063096
 Br,0,3.7215839582,-1.7838534688,0.
 Recover connectivity data from disk.

 GradGradGradGradGradGradGradGradGradGradGradGradGradGradGradGradGradGrad
 Berny optimization.
 Initialization pass.
                           ----------------------------
                           !    Initial Parameters    !
                           ! (Angstroms and Degrees)  !
 --------------------------                            --------------------------
 ! Name  Definition              Value          Derivative Info.                !
 --------------------------------------------------------------------------------
 ! R1    R(1,2)                  1.0861         calculate D2E/DX2 analytically  !
 ! R2    R(1,3)                  1.0861         calculate D2E/DX2 analytically  !
 ! R3    R(1,4)                  1.0861         calculate D2E/DX2 analytically  !
 ! R4    R(1,5)                  1.9644         calculate D2E/DX2 analytically  !
 ! A1    A(2,1,3)              111.1786         calculate D2E/DX2 analytically  !
 ! A2    A(2,1,4)              111.1786         calculate D2E/DX2 analytically  !
 ! A3    A(2,1,5)              107.7046         calculate D2E/DX2 analytically  !
 ! A4    A(3,1,4)              111.1786         calculate D2E/DX2 analytically  !
 ! A5    A(3,1,5)              107.7046         calculate D2E/DX2 analytically  !
 ! A6    A(4,1,5)              107.7046         calculate D2E/DX2 analytically  !
 ! D1    D(2,1,4,3)            124.4456         calculate D2E/DX2 analytically  !
 ! D2    D(2,1,5,3)           -120.0            calculate D2E/DX2 analytically  !
 ! D3    D(2,1,5,4)            120.0            calculate D2E/DX2 analytically  !
 ! D4    D(3,1,5,4)           -120.0            calculate D2E/DX2 analytically  !
 --------------------------------------------------------------------------------
 Trust Radius=3.00D-01 FncErr=1.00D-07 GrdErr=1.00D-07 EigMax=2.50D+02 EigMin=1.00D-04
 Number of steps in this run=      2 maximum allowed number of steps=      2.
 GradGradGradGradGradGradGradGradGradGradGradGradGradGradGradGradGradGrad

                          Input orientation:                          
 ---------------------------------------------------------------------
 Center     Atomic      Atomic             Coordinates (Angstroms)
 Number     Number       Type             X           Y           Z
 ---------------------------------------------------------------------
      1          6           0        3.066821    0.068169    0.000000
      2          1           0        3.442841    0.551441    0.897061
      3          1           0        3.446117    0.552599   -0.895055
      4          1           0        1.981216    0.034698   -0.002006
      5         35           0        3.721584   -1.783853   -0.000000
 ---------------------------------------------------------------------
                    Distance matrix (angstroms):
                    1          2          3          4          5
     1  C    0.000000
     2  H    1.086122   0.000000
     3  H    1.086122   1.792120   0.000000
     4  H    1.086122   1.792120   1.792120   0.000000
     5  Br   1.964358   2.517144   2.517144   2.517144   0.000000
 Stoichiometry    CH3Br
 Framework group  C3V[C3(CBr),3SGV(H)]
 Deg. of freedom     3
 Full point group                 C3V     NOp   6
 Largest Abelian subgroup         CS      NOp   2
 Largest concise Abelian subgroup CS      NOp   2
                         Standard orientation:                         
 ---------------------------------------------------------------------
 Center     Atomic      Atomic             Coordinates (Angstroms)
 Number     Number       Type             X           Y           Z
 ---------------------------------------------------------------------
      1          6           0        0.000000   -0.000000   -1.540037
      2          1           0        0.000000    1.034681   -1.870336
      3          1           0        0.896060   -0.517340   -1.870336
      4          1           0       -0.896060   -0.517340   -1.870336
      5         35           0       -0.000000    0.000000    0.424321
 ---------------------------------------------------------------------
 Rotational constants (GHZ):         156.1342222           9.3703576           9.3703576
 Standard basis: 6-311G(d,p) (5D, 7F)
 There are    59 symmetry adapted cartesian basis functions of A'  symmetry.
 There are    25 symmetry adapted cartesian basis functions of A"  symmetry.
 There are    55 symmetry adapted basis functions of A'  symmetry.
 There are    25 symmetry adapted basis functions of A"  symmetry.
    80 basis functions,   146 primitive gaussians,    84 cartesian basis functions
    22 alpha electrons       22 beta electrons
       nuclear repulsion energy        88.3015902892 Hartrees.
 NAtoms=    5 NActive=    5 NUniq=    3 SFac= 2.78D+00 NAtFMM=   60 NAOKFM=F Big=F
 Integral buffers will be    131072 words long.
 Raffenetti 2 integral format.
 Two-electron integral symmetry is turned on.
 One-electron integrals computed using PRISM.
 NBasis=    80 RedAO= T EigKep=  9.87D-03  NBF=    55    25
 NBsUse=    80 1.00D-06 EigRej= -1.00D+00 NBFU=    55    25
 Initial guess from the checkpoint file:  "ch3br.chk"
 B after Tr=    -0.000000   -0.000000    0.000000
         Rot=    1.000000    0.000000    0.000000    0.000000 Ang=   0.00 deg.
 Initial guess orbital symmetries:
       Occupied  (A1) (A1) (A1) (E) (E) (A1) (A1) (A1) (E) (E)
                 (A1) (E) (E) (E) (E) (A1) (A1) (E) (E) (A1) (E)
                 (E)
       Virtual   (A1) (A1) (E) (E) (A1) (E) (E) (E) (E) (A1) (A1)
                 (E) (E) (A1) (E) (E) (E) (E) (A1) (A1) (E) (E)
                 (A2) (E) (E) (A1) (E) (E) (A1) (E) (E) (A1) (E)
                 (E) (A1) (E) (E) (E) (E) (A1) (A1) (E) (E) (E)
                 (E) (E) (E) (A1) (A1) (E) (E) (A1) (A1) (A1) (E)
                 (E) (A1) (A1)
 Keep R1 ints in memory in symmetry-blocked form, NReq=7945259.
 SCF Done:  E(RB3LYP) =  -2614.07353599     a.u. after    1 cycles
            Convg  =    0.1171D-06                     1 Fock formations.
              S**2 =  0.0000                  -V/T =  2.0013
 DoSCS=F DFT=T ScalE2(SS,OS)=  1.000000  1.000000
 Range of M.O.s used for correlation:     1    80
 NBasis=    80 NAE=    22 NBE=    22 NFC=     0 NFV=     0
 NROrb=     80 NOA=    22 NOB=    22 NVA=    58 NVB=    58
 Symmetrizing basis deriv contribution to polar:
 IMax=3 JMax=2 DiffMx= 0.00D+00
 G2DrvN: will do     6 centers at a time, making    1 passes.
 Calling FoFCou, ICntrl=  3107 FMM=F I1Cent=   0 AccDes= 0.00D+00.
 End of G2Drv F.D. properties file   721 does not exist.
 End of G2Drv F.D. properties file   722 does not exist.
 End of G2Drv F.D. properties file   788 does not exist.
          IDoAtm=11111
          Differentiating once with respect to electric field.
                with respect to dipole field.
          Differentiating once with respect to nuclear coordinates.
 Keep R1 ints in memory in symmetry-blocked form, NReq=7947218.
          There are    12 degrees of freedom in the 1st order CPHF.  IDoFFX=4 NUNeed=    12.
     12 vectors produced by pass  0 Test12= 1.06D-14 8.33D-09 XBig12= 3.20D+01 4.89D+00.
 AX will form    12 AO Fock derivatives at one time.
     12 vectors produced by pass  1 Test12= 1.06D-14 8.33D-09 XBig12= 3.80D+00 8.37D-01.
     12 vectors produced by pass  2 Test12= 1.06D-14 8.33D-09 XBig12= 9.77D-02 9.21D-02.
     12 vectors produced by pass  3 Test12= 1.06D-14 8.33D-09 XBig12= 2.02D-03 1.09D-02.
     12 vectors produced by pass  4 Test12= 1.06D-14 8.33D-09 XBig12= 3.54D-06 5.78D-04.
      7 vectors produced by pass  5 Test12= 1.06D-14 8.33D-09 XBig12= 3.30D-09 1.25D-05.
      3 vectors produced by pass  6 Test12= 1.06D-14 8.33D-09 XBig12= 3.37D-12 5.29D-07.
      1 vectors produced by pass  7 Test12= 1.06D-14 8.33D-09 XBig12= 1.21D-14 2.58D-08.
 InvSVY:  IOpt=1 It=  1 EMax= 1.93D-16
 Solved reduced A of dimension    71 with    12 vectors.
 Isotropic polarizability for W=    0.000000       26.33 Bohr**3.
 End of Minotr F.D. properties file   721 does not exist.
 End of Minotr F.D. properties file   722 does not exist.
 End of Minotr F.D. properties file   788 does not exist.

 **********************************************************************

            Population analysis using the SCF Density.

 **********************************************************************

 Orbital symmetries:
       Occupied  (A1) (A1) (A1) (E) (E) (A1) (A1) (A1) (E) (E)
                 (A1) (E) (E) (E) (E) (A1) (A1) (E) (E) (A1) (E)
                 (E)
       Virtual   (A1) (A1) (E) (E) (A1) (E) (E) (E) (E) (A1) (A1)
                 (E) (E) (A1) (E) (E) (E) (E) (A1) (A1) (E) (E)
                 (A2) (E) (E) (A1) (E) (E) (A1) (E) (E) (A1) (E)
                 (E) (A1) (E) (E) (E) (E) (A1) (A1) (E) (E) (E)
[...]
  YYZ=              2.3241  XYZ=              0.0000
 Hexadecapole moment (field-independent basis, Debye-Ang**3):
 XXXX=            -37.2473 YYYY=            -37.2473 ZZZZ=           -159.2363 XXXY=              0.0000
 XXXZ=              0.0000 YYYX=              0.0000 YYYZ=             -1.6052 ZZZX=              0.0000
 ZZZY=              0.0000 XXYY=            -12.4158 XXZZ=            -31.9885 YYZZ=            -31.9885
 XXYZ=              1.6052 YYXZ=              0.0000 ZZXY=             -0.0000
 N-N= 8.830159028917D+01 E-N=-6.422174244281D+03  KE= 2.610780694994D+03
 Symmetry A'   KE= 2.232508980244D+03
 Symmetry A"   KE= 3.782717147502D+02
  Exact polarizability:  20.366  -0.000  20.366   0.000   0.000  38.262
 Approx polarizability:  28.151  -0.000  28.151  -0.000   0.000  55.479
 Calling FoFJK, ICntrl=    100127 FMM=F ISym2X=1 I1Cent= 0 IOpClX= 0 NMat=1 NMatS=1 NMatT=0.
 Full mass-weighted force constant matrix:
 Low frequencies ---   -0.0176   -0.0159   -0.0125    3.9743    3.9891   47.0530
 Low frequencies ---  591.0077  964.9195  964.9195
 Diagonal vibrational polarizability:
        0.3010443       0.3010514       1.4253132
 Harmonic frequencies (cm**-1), IR intensities (KM/Mole), Raman scattering
 activities (A**4/AMU), depolarization ratios for plane and unpolarized
 incident light, reduced masses (AMU), force constants (mDyne/A),
 and normal coordinates:
                      1                      2                      3
                     A1                      E                      E
 Frequencies --    591.0077               964.9193               964.9194
 Red. masses --      5.9036                 1.1387                 1.1387
 Frc consts  --      1.2149                 0.6247                 0.6247
 IR Inten    --     13.0892                 6.9771                 6.9770
  Atom  AN      X      Y      Z        X      Y      Z        X      Y      Z
     1   6    -0.00   0.00   0.60     0.00  -0.11   0.00     0.11   0.00   0.00
     2   1     0.00  -0.04   0.46    -0.00   0.13   0.76    -0.25  -0.00  -0.00
     3   1    -0.04   0.02   0.46     0.05   0.22  -0.38    -0.16  -0.05  -0.66
     4   1     0.04   0.02   0.46    -0.05   0.22  -0.38    -0.16   0.05   0.66
     5  35     0.00  -0.00  -0.11    -0.00   0.01  -0.00    -0.01  -0.00   0.00
                      4                      5                      6
                     A1                      E                      E
 Frequencies --   1336.4666              1475.3499              1475.3499
 Red. masses --      1.1332                 1.0606                 1.0606
 Frc consts  --      1.1925                 1.3602                 1.3602
 IR Inten    --     24.3152                 7.2555                 7.2557
  Atom  AN      X      Y      Z        X      Y      Z        X      Y      Z
     1   6     0.00   0.00  -0.11    -0.07   0.00   0.00    -0.00  -0.07  -0.00
     2   1    -0.00   0.18   0.54     0.74   0.00   0.00     0.00  -0.14  -0.30
     3   1     0.16  -0.09   0.54     0.08   0.38  -0.26     0.38   0.52   0.15
     4   1    -0.16  -0.09   0.54     0.08  -0.38   0.26    -0.38   0.52   0.15
     5  35    -0.00  -0.00  -0.00    -0.00   0.00   0.00    -0.00  -0.00  -0.00
                      7                      8                      9
                     A1                      E                      E
 Frequencies --   3078.3944              3184.8058              3184.8059
 Red. masses --      1.0252                 1.1098                 1.1098
 Frc consts  --      5.7244                 6.6322                 6.6322
 IR Inten    --     17.7833                 3.6488                 3.6487
  Atom  AN      X      Y      Z        X      Y      Z        X      Y      Z
     1   6     0.00  -0.00   0.04    -0.10  -0.00   0.00     0.00  -0.10  -0.00
     2   1     0.00   0.56  -0.16    -0.02   0.00  -0.00     0.00   0.78  -0.23
     3   1     0.48  -0.28  -0.16     0.58  -0.35  -0.20    -0.35   0.18   0.12
     4   1    -0.48  -0.28  -0.16     0.58   0.35   0.20     0.35   0.18   0.12
     5  35    -0.00   0.00  -0.00     0.00   0.00  -0.00    -0.00   0.00  -0.00

 -------------------
 - Thermochemistry -
 -------------------
 Temperature   298.150 Kelvin.  Pressure   1.00000 Atm.
 Atom     1 has atomic number  6 and mass  12.00000
 Atom     2 has atomic number  1 and mass   1.00783
 Atom     3 has atomic number  1 and mass   1.00783
 Atom     4 has atomic number  1 and mass   1.00783
 Atom     5 has atomic number 35 and mass  78.91834
 Molecular mass:    93.94181 amu.
 Principal axes and moments of inertia in atomic units:
                           1         2         3
     Eigenvalues --    11.55891 192.60110 192.60110
           X           -0.00000  -0.31117   0.95035
           Y            0.00000   0.95035   0.31117
           Z            1.00000  -0.00000   0.00000
 This molecule is a prolate symmetric top.
 Rotational symmetry number  3.
 Rotational temperatures (Kelvin)      7.49326     0.44971     0.44971
 Rotational constants (GHZ):         156.13422     9.37036     9.37036
 Zero-point vibrational energy      97232.6 (Joules/Mol)
                                   23.23915 (Kcal/Mol)
 Warning -- explicit consideration of   1 degrees of freedom as
           vibrations may cause significant error
 Vibrational temperatures:    850.33  1388.30  1388.30  1922.88  2122.70
          (Kelvin)           2122.70  4429.12  4582.23  4582.23
 
 Zero-point correction=                           0.037034 (Hartree/Particle)
 Thermal correction to Energy=                    0.040136
 Thermal correction to Enthalpy=                  0.041081
 Thermal correction to Gibbs Free Energy=         0.013158
 Sum of electronic and zero-point Energies=          -2614.036502
 Sum of electronic and thermal Energies=             -2614.033400
 Sum of electronic and thermal Enthalpies=           -2614.032455
 Sum of electronic and thermal Free Energies=        -2614.060378
 
                     E (Thermal)             CV                S
                      KCal/Mol        Cal/Mol-Kelvin    Cal/Mol-Kelvin
 Total                   25.186              8.142             58.768
 Electronic               0.000              0.000              0.000
 Translational            0.889              2.981             39.532
 Rotational               0.889              2.981             18.505
 Vibrational             23.408              2.180              0.730
 Vibration     1          0.948              1.051              0.465
                       Q            Log10(Q)             Ln(Q)
 Total Bot       0.886496D-06         -6.052323        -13.935989
 Total V=0       0.959599D+11         10.982090         25.287196
 Vib (Bot)       0.100252D-16        -16.998907        -39.141430
 Vib (Bot)    1  0.254986D+00         -0.593484         -1.366546
 Vib (V=0)       0.108519D+01          0.035506          0.081756
 Vib (V=0)    1  0.106126D+01          0.025824          0.059461
 Electronic      0.100000D+01          0.000000          0.000000
 Translational   0.357884D+08          7.553742         17.393134
 Rotational      0.247082D+04          3.392842          7.812306
 ***** Axes restored to original set *****
 -------------------------------------------------------------------
 Center     Atomic                   Forces (Hartrees/Bohr)
 Number     Number              X              Y              Z
 -------------------------------------------------------------------
      1        6          -0.000078000    0.000220948    0.000000186
      2        1          -0.000056134   -0.000088412   -0.000143350
      3        1          -0.000056671   -0.000088406    0.000142980
      4        1           0.000177307   -0.000005685    0.000000339
      5       35           0.000013497   -0.000038445   -0.000000155
 -------------------------------------------------------------------
 Cartesian Forces:  Max     0.000220948 RMS     0.000100339
 FormGI is forming the generalized inverse of G from B-inverse, IUseBI=4.

 GradGradGradGradGradGradGradGradGradGradGradGradGradGradGradGradGradGrad
 Berny optimization.
 Internal  Forces:  Max     0.000177187 RMS     0.000082872
 Search for a local minimum.
 Step number   1 out of a maximum of    2
 All quantities printed in internal units (Hartrees-Bohrs-Radians)
 Second derivative matrix not updated -- analytic derivatives used.
 The second derivative matrix:
                          R1        R2        R3        R4        A1
           R1           0.35052
           R2           0.00202   0.35052
           R3           0.00202   0.00202   0.35052
           R4           0.00270   0.00270   0.00270   0.17345
           A1           0.00351   0.00351  -0.00372  -0.00563   0.01899
           A2           0.00507  -0.00344   0.00578  -0.01269  -0.00872
           A3          -0.00457  -0.00008  -0.00114   0.00990  -0.01253
           A4          -0.00344   0.00507   0.00578  -0.01269  -0.00872
           A5          -0.00008  -0.00457  -0.00114   0.00990  -0.01253
           A6          -0.00086  -0.00086  -0.00614   0.01345   0.02339
           D1           0.00576   0.00576   0.00367  -0.02598   0.01187
           D2          -0.00159  -0.00159   0.00568  -0.00428  -0.00867
           D3           0.00301  -0.00460   0.00284  -0.00214  -0.00434
           D4           0.00460  -0.00301  -0.00284   0.00214   0.00434
                          A2        A3        A4        A5        A6
           A2           0.03394
           A3          -0.02110   0.08152
           A4          -0.00246   0.02309   0.03394
           A5           0.02309  -0.03888  -0.02110   0.08152
           A6          -0.02641  -0.03134  -0.02641  -0.03134   0.09424
           D1           0.01182  -0.01483   0.01182  -0.01483  -0.00843
           D2           0.00924  -0.00872   0.00924  -0.00872   0.00690
           D3           0.01400   0.00271  -0.00476  -0.01143   0.00345
           D4           0.00476   0.01143  -0.01400  -0.00271  -0.00345
                          D1        D2        D3        D4
           D1           0.03282
           D2           0.00232   0.01993
           D3           0.00116   0.00996   0.02002
           D4          -0.00116  -0.00996   0.01006   0.02002
 ITU=  0
     Eigenvalues ---    0.03931   0.04688   0.05863   0.13800   0.13943
     Eigenvalues ---    0.18640   0.34904   0.34907   0.35520
 Angle between quadratic step and forces=  36.48 degrees.
 Linear search not attempted -- first point.
 Iteration  1 RMS(Cart)=  0.00021283 RMS(Int)=  0.00000007
 Iteration  2 RMS(Cart)=  0.00000005 RMS(Int)=  0.00000003
 ClnCor:  largest displacement from symmetrization is 3.35D-07 for atom     1.
 Variable       Old X    -DE/DX   Delta X   Delta X   Delta X     New X
                                 (Linear)    (Quad)   (Total)
    R1        2.05247  -0.00018   0.00000  -0.00052  -0.00052   2.05196
    R2        2.05247  -0.00018   0.00000  -0.00052  -0.00052   2.05196
    R3        2.05247  -0.00018   0.00000  -0.00052  -0.00052   2.05196
    R4        3.71210   0.00004   0.00000   0.00041   0.00041   3.71251
    A1        1.94043   0.00000   0.00000   0.00019   0.00019   1.94063
    A2        1.94043   0.00001   0.00000   0.00019   0.00019   1.94063
    A3        1.87980  -0.00001   0.00000  -0.00021  -0.00021   1.87959
    A4        1.94043   0.00001   0.00000   0.00019   0.00019   1.94063
    A5        1.87980  -0.00001   0.00000  -0.00021  -0.00021   1.87959
    A6        1.87980  -0.00001   0.00000  -0.00021  -0.00021   1.87959
    D1        2.17198   0.00001   0.00000   0.00054   0.00054   2.17252
    D2       -2.09440   0.00000   0.00000  -0.00000   0.00000  -2.09440
    D3        2.09440   0.00000   0.00000   0.00000   0.00000   2.09440
    D4       -2.09440  -0.00000   0.00000   0.00000   0.00000  -2.09440
         Item               Value     Threshold  Converged?
 Maximum Force            0.000177     0.000450     YES
 RMS     Force            0.000083     0.000300     YES
 Maximum Displacement     0.000397     0.001800     YES
 RMS     Displacement     0.000213     0.001200     YES
 Predicted change in Energy=-1.530582D-07
 Optimization completed.
    -- Stationary point found.
                           ----------------------------
                           !   Optimized Parameters   !
                           ! (Angstroms and Degrees)  !
 --------------------------                            --------------------------
 ! Name  Definition              Value          Derivative Info.                !
 --------------------------------------------------------------------------------
 ! R1    R(1,2)                  1.0861         -DE/DX =   -0.0002              !
 ! R2    R(1,3)                  1.0861         -DE/DX =   -0.0002              !
 ! R3    R(1,4)                  1.0861         -DE/DX =   -0.0002              !
 ! R4    R(1,5)                  1.9644         -DE/DX =    0.0                 !
 ! A1    A(2,1,3)              111.1786         -DE/DX =    0.0                 !
 ! A2    A(2,1,4)              111.1786         -DE/DX =    0.0                 !
 ! A3    A(2,1,5)              107.7046         -DE/DX =    0.0                 !
 ! A4    A(3,1,4)              111.1786         -DE/DX =    0.0                 !
 ! A5    A(3,1,5)              107.7046         -DE/DX =    0.0                 !
 ! A6    A(4,1,5)              107.7046         -DE/DX =    0.0                 !
 ! D1    D(2,1,4,3)            124.4456         -DE/DX =    0.0                 !
 ! D2    D(2,1,5,3)           -120.0            -DE/DX =    0.0                 !
 ! D3    D(2,1,5,4)            120.0            -DE/DX =    0.0                 !
 ! D4    D(3,1,5,4)           -120.0            -DE/DX =    0.0                 !
 --------------------------------------------------------------------------------
 GradGradGradGradGradGradGradGradGradGradGradGradGradGradGradGradGradGrad


 ----------------------------------------------------------------------

 Electric dipole moment (input orientation):
 (Debye = 10**-18 statcoulomb cm , SI units = C m)
                  (au)            (Debye)         (10**-30 SI)
   Tot        0.773899D+00      0.196705D+01      0.656139D+01
   x         -0.257957D+00     -0.655662D+00     -0.218705D+01
   y          0.729642D+00      0.185456D+01      0.618616D+01
   z          0.000000D+00      0.000000D+00      0.000000D+00

 Dipole polarizability, Alpha (input orientation).
 (esu units = cm**3 , SI units = C**2 m**2 J**-1)
 Alpha(0;0):
               (au)            (10**-24 esu)      (10**-40 SI)
   iso        0.263316D+02      0.390194D+01      0.434150D+01
   aniso      0.178958D+02      0.265189D+01      0.295062D+01
   xx         0.223547D+02      0.331263D+01      0.368580D+01
   yx        -0.562398D+01     -0.833389D+00     -0.927270D+00
   yy         0.362739D+02      0.537523D+01      0.598075D+01
   zx        -0.488596D-04     -0.724025D-05     -0.805587D-05
   zy        -0.147451D-03     -0.218500D-04     -0.243114D-04
   zz         0.203663D+02      0.301797D+01      0.335795D+01

 ----------------------------------------------------------------------

 Dipole orientation:
     6          5.19204025          1.83559112         -1.81029632
     1          6.67571367          0.56210506         -1.18612027
     1          5.55307476          3.75723321         -1.18612083
     1          3.34733207          1.18743532         -1.18612083
    35          5.19204079          1.83559066         -5.52239436

 Electric dipole moment (dipole orientation):
 (Debye = 10**-18 statcoulomb cm , SI units = C m)
                  (au)            (Debye)         (10**-30 SI)
   Tot        0.773899D+00      0.196705D+01      0.656139D+01
   x          0.000000D+00      0.000000D+00      0.000000D+00
   y          0.000000D+00      0.000000D+00      0.000000D+00
   z          0.773899D+00      0.196705D+01      0.656139D+01

 Dipole polarizability, Alpha (dipole orientation).
 (esu units = cm**3 , SI units = C**2 m**2 J**-1)
 Alpha(0;0):
               (au)            (10**-24 esu)      (10**-40 SI)
   iso        0.263316D+02      0.390194D+01      0.434150D+01
   aniso      0.178958D+02      0.265189D+01      0.295062D+01
   xx         0.203663D+02      0.301798D+01      0.335795D+01
   yx         0.108918D-03      0.161400D-04      0.179581D-04
   yy         0.203664D+02      0.301798D+01      0.335796D+01
   zx        -0.110006D-03     -0.163013D-04     -0.181376D-04
   zy         0.944222D-04      0.139919D-04      0.155681D-04
   zz         0.382622D+02      0.566987D+01      0.630858D+01

 ----------------------------------------------------------------------
 1\1\GINC-CN209\Freq\RB3LYP\6-311G(d,p)\C1H3Br1\21CY91R08\14-Nov-2021\0
 \\#N Geom=AllCheck Guess=TCheck SCRF=Check GenChk RB3LYP/6-311G(d,p) F
 req\\CH3Br_6311G_dp\\0,1\C,3.0668207133,0.068168732,0.0000000011\H,3.4
 428408741,0.5514408155,0.8970612444\H,3.4461171798,0.5525991204,-0.895
 0549311\H,1.9812159696,0.034698487,-0.0020063096\Br,3.7215839582,-1.78
 38534688,0.\\Version=EM64L-G16RevB.01\State=1-A1\HF=-2614.073536\RMSD=
 2.319e-09\RMSF=1.003e-04\ZeroPoint=0.0370339\Thermal=0.0401363\Dipole=
 -0.2579572,0.7296418,0.0000001\DipoleDeriv=0.1067865,-0.1731527,0.,-0.
 1731556,0.5353341,-0.0000077,-0.0000016,-0.0000029,0.0455658,0.0662597
 ,0.0294555,-0.0369092,0.0234586,-0.0801988,-0.0655428,-0.0403869,-0.05
 57059,0.000621,0.0659765,0.029203,0.0371865,0.0231664,-0.0803552,0.065
 5249,0.0406561,0.0557089,0.0010606,-0.0694368,0.0489819,-0.0002771,0.0
 610164,-0.0430558,0.0000201,-0.0002682,-0.0000026,0.0991746,-0.1695846
 ,0.0655132,-0.0000006,0.065514,-0.3317257,0.0000033,-0.0000002,0.00000
 21,-0.1464219\Polar=22.3547285,-5.6239845,36.2738519,-0.0000489,-0.000
 1475,20.3662912\Quadrupole=-0.6314227,1.5785242,-0.9471015,-0.8929089,
 0.,-0.0000002\PG=C03V [C3(C1Br1),3SGV(H1)]\NImag=0\\0.53573644,0.08583
 247,0.32330157,0.00000005,0.00000018,0.56608177,-0.08374164,-0.0473866
 7,-0.08148198,0.08490763,-0.04948394,-0.09201519,-0.10506000,0.0457411
 3,0.10210773,-0.08269824,-0.10161976,-0.24540560,0.09051340,0.10762759
 ,0.25678759,-0.08434384,-0.04786390,0.08200876,0.00494036,0.00561976,-
 0.01018732,0.08557155,-0.04997533,-0.09228245,0.10507569,0.00564887,0.
 00900572,-0.01155215,0.04625207,0.10238609,0.08322235,0.10164320,-0.24
 453610,0.01027862,0.01160771,-0.01803731,-0.09107945,-0.10765865,0.255
 84526,-0.33281368,-0.01750693,-0.00052681,-0.00765793,-0.00082522,0.00
 132306,-0.00775040,-0.00082435,-0.00136029,0.34981318,-0.01329826,-0.0
 3752694,-0.00001572,-0.01381288,0.00142133,0.00166642,-0.01384112,0.00
 142322,-0.00171796,0.01617210,0.04808953,-0.00052416,-0.00002341,-0.05
 082176,-0.02665786,-0.00023704,0.00214537,0.02660382,0.00023304,0.0022
 3595,0.00056605,0.00003097,0.04590019,-0.03483732,0.02692497,0.,0.0015
 5160,-0.00105172,0.00104908,0.00158236,-0.00110127,-0.00106119,-0.0015
 9114,0.02478019,0.00001212,0.03329448,0.02692505,-0.10147690,-0.000000
 08,0.00980955,-0.02051958,0.00387788,0.00983323,-0.02053257,-0.0038743
 1,0.00298437,-0.01340713,-0.00000356,-0.04955214,0.15593609,0.00000004
 ,-0.00000020,-0.02531832,0.00734780,-0.01393828,0.00450994,-0.00734584
 ,0.01390206,0.00449221,-0.00000198,0.00003629,0.00054028,-0.00000002,0
 .00000010,0.01577588\\0.00007800,-0.00022095,-0.00000019,0.00005613,0.
 00008841,0.00014335,0.00005667,0.00008841,-0.00014298,-0.00017731,0.00
 000569,-0.00000034,-0.00001350,0.00003845,0.00000016\\\@


 DEMOCRATS BUY MOST OF THE BOOKS THAT HAVE BEEN
 BANNED; REPUBLICANS FORM CENSORSHIP COMMITTEES AND
 READ THEM AS A GROUP.
 Job cpu time:       0 days  0 hours  0 minutes 24.3 seconds.
 Elapsed time:       0 days  0 hours  0 minutes 12.3 seconds.
 File lengths (MBytes):  RWF=      7 Int=      0 D2E=      0 Chk=      2 Scr=      1
 Normal termination of Gaussian 16 at Sun Nov 14 01:41:00 2021.
